 Entering Gaussian System, Link 0=g09
 Input=1,3-propanediol.com
 Output=1,3-propanediol.log
 Initial command:
 /opt/programs/gaussian/g09/d_pgi133/l1.exe "/scratch/users/apinto/lixo/Gau-1054407.inp" -scrdir="/scratch/users/apinto/lixo/"
 Entering Link 1 = /opt/programs/gaussian/g09/d_pgi133/l1.exe PID=   1054409.
  
 Copyright (c) 1988,1990,1992,1993,1995,1998,2003,2009,2013,
            Gaussian, Inc.  All Rights Reserved.
  
 This is part of the Gaussian(R) 09 program.  It is based on
 the Gaussian(R) 03 system (copyright 2003, Gaussian, Inc.),
 the Gaussian(R) 98 system (copyright 1998, Gaussian, Inc.),
 the Gaussian(R) 94 system (copyright 1995, Gaussian, Inc.),
 the Gaussian 92(TM) system (copyright 1992, Gaussian, Inc.),
 the Gaussian 90(TM) system (copyright 1990, Gaussian, Inc.),
 the Gaussian 88(TM) system (copyright 1988, Gaussian, Inc.),
 the Gaussian 86(TM) system (copyright 1986, Carnegie Mellon
 University), and the Gaussian 82(TM) system (copyright 1983,
 Carnegie Mellon University). Gaussian is a federally registered
 trademark of Gaussian, Inc.
  
 This software contains proprietary and confidential information,
 including trade secrets, belonging to Gaussian, Inc.
  
 This software is provided under written license and may be
 used, copied, transmitted, or stored only in accord with that
 written license.
  
 The following legend is applicable only to US Government
 contracts under FAR:
  
                    RESTRICTED RIGHTS LEGEND
  
 Use, reproduction and disclosure by the US Government is
 subject to restrictions as set forth in subparagraphs (a)
 and (c) of the Commercial Computer Software - Restricted
 Rights clause in FAR 52.227-19.
  
 Gaussian, Inc.
 340 Quinnipiac St., Bldg. 40, Wallingford CT 06492
  
  
 ---------------------------------------------------------------
 Warning -- This program may not be used in any manner that
 competes with the business of Gaussian, Inc. or will provide
 assistance to any competitor of Gaussian, Inc.  The licensee
 of this program is prohibited from giving any competitor of
 Gaussian, Inc. access to this program.  By using this program,
 the user acknowledges that Gaussian, Inc. is engaged in the
 business of creating and licensing software in the field of
 computational chemistry and represents and warrants to the
 licensee that it is not a competitor of Gaussian, Inc. and that
 it will not use this program in any manner prohibited above.
 ---------------------------------------------------------------
  

 Cite this work as:
 Gaussian 09, Revision D.01,
 M. J. Frisch, G. W. Trucks, H. B. Schlegel, G. E. Scuseria, 
 M. A. Robb, J. R. Cheeseman, G. Scalmani, V. Barone, B. Mennucci, 
 G. A. Petersson, H. Nakatsuji, M. Caricato, X. Li, H. P. Hratchian, 
 A. F. Izmaylov, J. Bloino, G. Zheng, J. L. Sonnenberg, M. Hada, 
 M. Ehara, K. Toyota, R. Fukuda, J. Hasegawa, M. Ishida, T. Nakajima, 
 Y. Honda, O. Kitao, H. Nakai, T. Vreven, J. A. Montgomery, Jr., 
 J. E. Peralta, F. Ogliaro, M. Bearpark, J. J. Heyd, E. Brothers, 
 K. N. Kudin, V. N. Staroverov, T. Keith, R. Kobayashi, J. Normand, 
 K. Raghavachari, A. Rendell, J. C. Burant, S. S. Iyengar, J. Tomasi, 
 M. Cossi, N. Rega, J. M. Millam, M. Klene, J. E. Knox, J. B. Cross, 
 V. Bakken, C. Adamo, J. Jaramillo, R. Gomperts, R. E. Stratmann, 
 O. Yazyev, A. J. Austin, R. Cammi, C. Pomelli, J. W. Ochterski, 
 R. L. Martin, K. Morokuma, V. G. Zakrzewski, G. A. Voth, 
 P. Salvador, J. J. Dannenberg, S. Dapprich, A. D. Daniels, 
 O. Farkas, J. B. Foresman, J. V. Ortiz, J. Cioslowski, 
 and D. J. Fox, Gaussian, Inc., Wallingford CT, 2013.
 
 ******************************************
 Gaussian 09:  ES64L-G09RevD.01 24-Apr-2013
                10-Nov-2025 
 ******************************************
 ----------------------------
 # opt=tight b3lyp/6-31g(d,p)
 ----------------------------
 1/7=10,14=-1,18=20,19=15,26=3,38=1/1,3;
 2/9=110,12=2,17=6,18=5,40=1/2;
 3/5=1,6=6,7=101,11=2,16=1,25=1,30=1,71=1,74=-5/1,2,3;
 4//1;
 5/5=2,38=5/2;
 6/7=2,8=2,9=2,10=2,28=1/1;
 7//1,2,3,16;
 1/7=10,14=-1,18=20,19=15,26=3/3(2);
 2/9=110/2;
 99//99;
 2/9=110/2;
 3/5=1,6=6,7=101,11=2,16=1,25=1,30=1,71=1,74=-5/1,2,3;
 4/5=5,16=3,69=1/1;
 5/5=2,38=5/2;
 7//1,2,3,16;
 1/7=10,14=-1,18=20,19=15,26=3/3(-5);
 2/9=110/2;
 6/7=2,8=2,9=2,10=2,19=2,28=1/1;
 99/9=1/99;
 -------------------
 Title Card Required
 -------------------
 Symbolic Z-matrix:
 Charge =  0 Multiplicity = 1
 C                    -1.44952  -0.10201   0.00237 
 H                    -1.46642  -1.11262  -0.34876 
 H                    -1.8406   -0.06363   0.9976 
 C                     0.        0.41807   0. 
 H                    -0.03415   0.02527  -0.99471 
 H                     0.03415   0.02527   0.99471 
 C                     1.44952  -0.10201  -0.00237 
 H                     1.8406   -0.06363  -0.9976 
 H                     2.04868   0.50885   0.64009 
 O                    -2.25026   0.71438  -0.85625 
 H                    -3.17501   0.47888  -0.75145 
 O                     1.47211  -1.45264   0.4669 
 H                     2.38189  -1.74631   0.55438 
 

 GradGradGradGradGradGradGradGradGradGradGradGradGradGradGradGradGradGrad
 Berny optimization.
 Initialization pass.
                           ----------------------------
                           !    Initial Parameters    !
                           ! (Angstroms and Degrees)  !
 --------------------------                            --------------------------
 ! Name  Definition              Value          Derivative Info.                !
 --------------------------------------------------------------------------------
 ! R1    R(1,2)                  1.07           estimate D2E/DX2                !
 ! R2    R(1,3)                  1.07           estimate D2E/DX2                !
 ! R3    R(1,4)                  1.54           estimate D2E/DX2                !
 ! R4    R(1,10)                 1.43           estimate D2E/DX2                !
 ! R5    R(4,5)                  1.07           estimate D2E/DX2                !
 ! R6    R(4,6)                  1.07           estimate D2E/DX2                !
 ! R7    R(4,7)                  1.54           estimate D2E/DX2                !
 ! R8    R(7,8)                  1.07           estimate D2E/DX2                !
 ! R9    R(7,9)                  1.07           estimate D2E/DX2                !
 ! R10   R(7,12)                 1.43           estimate D2E/DX2                !
 ! R11   R(10,11)                0.96           estimate D2E/DX2                !
 ! R12   R(12,13)                0.96           estimate D2E/DX2                !
 ! A1    A(2,1,3)              109.4712         estimate D2E/DX2                !
 ! A2    A(2,1,4)              109.4712         estimate D2E/DX2                !
 ! A3    A(2,1,10)             109.4712         estimate D2E/DX2                !
 ! A4    A(3,1,4)              109.4712         estimate D2E/DX2                !
 ! A5    A(3,1,10)             109.4712         estimate D2E/DX2                !
 ! A6    A(4,1,10)             109.4712         estimate D2E/DX2                !
 ! A7    A(1,4,5)               81.2229         estimate D2E/DX2                !
 ! A8    A(1,4,6)               84.5278         estimate D2E/DX2                !
 ! A9    A(1,4,7)              140.5243         estimate D2E/DX2                !
 ! A10   A(5,4,6)              136.9257         estimate D2E/DX2                !
 ! A11   A(5,4,7)               84.5278         estimate D2E/DX2                !
 ! A12   A(6,4,7)               81.2229         estimate D2E/DX2                !
 ! A13   A(4,7,8)              109.4712         estimate D2E/DX2                !
 ! A14   A(4,7,9)              109.4712         estimate D2E/DX2                !
 ! A15   A(4,7,12)             109.4712         estimate D2E/DX2                !
 ! A16   A(8,7,9)              109.4712         estimate D2E/DX2                !
 ! A17   A(8,7,12)             109.4712         estimate D2E/DX2                !
 ! A18   A(9,7,12)             109.4712         estimate D2E/DX2                !
 ! A19   A(1,10,11)            109.5            estimate D2E/DX2                !
 ! A20   A(7,12,13)            109.5            estimate D2E/DX2                !
 ! D1    D(2,1,4,5)             49.7987         estimate D2E/DX2                !
 ! D2    D(2,1,4,6)            -89.4281         estimate D2E/DX2                !
 ! D3    D(2,1,4,7)            -20.3706         estimate D2E/DX2                !
 ! D4    D(3,1,4,5)            169.7987         estimate D2E/DX2                !
 ! D5    D(3,1,4,6)             30.5719         estimate D2E/DX2                !
 ! D6    D(3,1,4,7)             99.6294         estimate D2E/DX2                !
 ! D7    D(10,1,4,5)           -70.2013         estimate D2E/DX2                !
 ! D8    D(10,1,4,6)           150.5719         estimate D2E/DX2                !
 ! D9    D(10,1,4,7)          -140.3706         estimate D2E/DX2                !
 ! D10   D(2,1,10,11)           68.7331         estimate D2E/DX2                !
 ! D11   D(3,1,10,11)          -51.2669         estimate D2E/DX2                !
 ! D12   D(4,1,10,11)         -171.2669         estimate D2E/DX2                !
 ! D13   D(1,4,7,8)             99.6294         estimate D2E/DX2                !
 ! D14   D(1,4,7,9)           -140.3706         estimate D2E/DX2                !
 ! D15   D(1,4,7,12)           -20.3706         estimate D2E/DX2                !
 ! D16   D(5,4,7,8)             30.5719         estimate D2E/DX2                !
 ! D17   D(5,4,7,9)            150.5719         estimate D2E/DX2                !
 ! D18   D(5,4,7,12)           -89.4281         estimate D2E/DX2                !
 ! D19   D(6,4,7,8)            169.7987         estimate D2E/DX2                !
 ! D20   D(6,4,7,9)            -70.2013         estimate D2E/DX2                !
 ! D21   D(6,4,7,12)            49.7987         estimate D2E/DX2                !
 ! D22   D(4,7,12,13)         -174.0304         estimate D2E/DX2                !
 ! D23   D(8,7,12,13)           65.9696         estimate D2E/DX2                !
 ! D24   D(9,7,12,13)          -54.0304         estimate D2E/DX2                !
 --------------------------------------------------------------------------------
 Trust Radius=3.00D-01 FncErr=1.00D-07 GrdErr=1.00D-06
 Number of steps in this run=     66 maximum allowed number of steps=    100.
 GradGradGradGradGradGradGradGradGradGradGradGradGradGradGradGradGradGrad

                          Input orientation:                          
 ---------------------------------------------------------------------
 Center     Atomic      Atomic             Coordinates (Angstroms)
 Number     Number       Type             X           Y           Z
 ---------------------------------------------------------------------
      1          6           0       -1.449519   -0.102014    0.002366
      2          1           0       -1.466419   -1.112619   -0.348764
      3          1           0       -1.840596   -0.063633    0.997597
      4          6           0        0.000000    0.418071    0.000000
      5          1           0       -0.034152    0.025269   -0.994706
      6          1           0        0.034152    0.025269    0.994706
      7          6           0        1.449519   -0.102014   -0.002366
      8          1           0        1.840596   -0.063633   -0.997597
      9          1           0        2.048676    0.508853    0.640093
     10          8           0       -2.250261    0.714378   -0.856247
     11          1           0       -3.175010    0.478882   -0.751453
     12          8           0        1.472105   -1.452636    0.466901
     13          1           0        2.381885   -1.746315    0.554382
 ---------------------------------------------------------------------
                    Distance matrix (angstroms):
                    1          2          3          4          5
     1  C    0.000000
     2  H    1.070000   0.000000
     3  H    1.070000   1.747303   0.000000
     4  C    1.540000   2.148263   2.148263   0.000000
     5  H    1.735978   1.939954   2.690803   1.070000   0.000000
     6  H    1.789475   2.313313   1.876857   1.070000   1.990585
     7  C    2.899042   3.105481   3.438933   1.540000   1.789475
     8  H    3.438933   3.529548   4.187120   2.148263   1.876857
     9  H    3.607939   3.995360   3.947403   2.148263   2.691578
    10  O    1.430000   2.051796   2.051796   2.425826   2.324905
    11  H    1.970533   2.369454   2.265869   3.263291   3.182754
    12  O    3.252055   3.068525   3.631110   2.425826   2.566965
    13  H    4.205723   4.003335   4.566969   3.265774   3.372747
                    6          7          8          9         10
     6  H    0.000000
     7  C    1.735978   0.000000
     8  H    2.690803   1.070000   0.000000
     9  H    2.101883   1.070000   1.747303   0.000000
    10  O    3.019841   3.883811   4.166581   4.556549   0.000000
    11  H    3.681515   4.720682   5.050862   5.405940   0.960000
    12  O    2.128495   1.430000   2.051796   2.051796   4.505850
    13  H    2.973928   1.970533   2.352244   2.281262   5.431544
                   11         12         13
    11  H    0.000000
    12  O    5.177917   0.000000
    13  H    6.126646   0.960000   0.000000
 Stoichiometry    C3H8O2
 Framework group  C1[X(C3H8O2)]
 Deg. of freedom    33
 Full point group                 C1      NOp   1
 Largest Abelian subgroup         C1      NOp   1
 Largest concise Abelian subgroup C1      NOp   1
                         Standard orientation:                         
 ---------------------------------------------------------------------
 Center     Atomic      Atomic             Coordinates (Angstroms)
 Number     Number       Type             X           Y           Z
 ---------------------------------------------------------------------
      1          6           0        1.195475    0.483581    0.160641
      2          1           0        0.952311    1.210406   -0.586017
      3          1           0        1.358505    0.974998    1.097033
      4          6           0        0.032906   -0.516539    0.301333
      5          1           0        0.144517   -0.544518   -0.762462
      6          1           0       -0.337304    0.173501    1.030503
      7          6           0       -1.472058   -0.640065   -0.001032
      8          1           0       -1.609820   -1.196171   -0.904728
      9          1           0       -1.957788   -1.146318    0.806850
     10          8           0        2.382097   -0.215853   -0.223573
     11          1           0        3.133728    0.379686   -0.179032
     12          8           0       -2.036259    0.665023   -0.153748
     13          1           0       -2.988794    0.593187   -0.249230
 ---------------------------------------------------------------------
 Rotational constants (GHZ):     15.8088390      2.1414464      1.9949461
 Standard basis: 6-31G(d,p) (6D, 7F)
 There are   115 symmetry adapted cartesian basis functions of A   symmetry.
 There are   115 symmetry adapted basis functions of A   symmetry.
   115 basis functions,   196 primitive gaussians,   115 cartesian basis functions
    21 alpha electrons       21 beta electrons
       nuclear repulsion energy       186.3511259135 Hartrees.
 NAtoms=   13 NActive=   13 NUniq=   13 SFac= 1.00D+00 NAtFMM=   60 NAOKFM=F Big=F
 Integral buffers will be    131072 words long.
 Raffenetti 2 integral format.
 Two-electron integral symmetry is turned on.
 One-electron integrals computed using PRISM.
 NBasis=   115 RedAO= T EigKep=  4.14D-03  NBF=   115
 NBsUse=   115 1.00D-06 EigRej= -1.00D+00 NBFU=   115
 ExpMin= 1.61D-01 ExpMax= 5.48D+03 ExpMxC= 8.25D+02 IAcc=1 IRadAn=         1 AccDes= 0.00D+00
 Harris functional with IExCor=  402 and IRadAn=       1 diagonalized for initial guess.
 HarFok:  IExCor=  402 AccDes= 0.00D+00 IRadAn=         1 IDoV= 1 UseB2=F ITyADJ=14
 ICtDFT=  3500011 ScaDFX=  1.000000  1.000000  1.000000  1.000000
 FoFCou: FMM=F IPFlag=           0 FMFlag=      100000 FMFlg1=           0
         NFxFlg=           0 DoJE=T BraDBF=F KetDBF=T FulRan=T
         wScrn=  0.000000 ICntrl=     500 IOpCl=  0 I1Cent=   200000004 NGrid=           0
         NMat0=    1 NMatS0=      1 NMatT0=    0 NMatD0=    1 NMtDS0=    0 NMtDT0=    0
 Petite list used in FoFCou.
 Keep R1 ints in memory in canonical form, NReq=23243465.
 Requested convergence on RMS density matrix=1.00D-08 within 128 cycles.
 Requested convergence on MAX density matrix=1.00D-06.
 Requested convergence on             energy=1.00D-06.
 No special actions if energy rises.
 Integral accuracy reduced to 1.0D-05 until final iterations.
 Initial convergence to 1.0D-05 achieved.  Increase integral accuracy.
 SCF Done:  E(RB3LYP) =  -269.322215789     A.U. after   15 cycles
            NFock= 15  Conv=0.90D-08     -V/T= 2.0068

 **********************************************************************

            Population analysis using the SCF density.

 **********************************************************************

 Orbital symmetries:
       Occupied  (A) (A) (A) (A) (A) (A) (A) (A) (A) (A) (A) (A)
                 (A) (A) (A) (A) (A) (A) (A) (A) (A)
       Virtual   (A) (A) (A) (A) (A) (A) (A) (A) (A) (A) (A) (A)
                 (A) (A) (A) (A) (A) (A) (A) (A) (A) (A) (A) (A)
                 (A) (A) (A) (A) (A) (A) (A) (A) (A) (A) (A) (A)
                 (A) (A) (A) (A) (A) (A) (A) (A) (A) (A) (A) (A)
                 (A) (A) (A) (A) (A) (A) (A) (A) (A) (A) (A) (A)
                 (A) (A) (A) (A) (A) (A) (A) (A) (A) (A) (A) (A)
                 (A) (A) (A) (A) (A) (A) (A) (A) (A) (A) (A) (A)
                 (A) (A) (A) (A) (A) (A) (A) (A) (A) (A)
 The electronic state is 1-A.
 Alpha  occ. eigenvalues --  -19.14331 -19.13638 -10.26730 -10.26526 -10.12182
 Alpha  occ. eigenvalues --   -1.02238  -1.01169  -0.80571  -0.69716  -0.57669
 Alpha  occ. eigenvalues --   -0.55027  -0.51256  -0.50034  -0.45814  -0.41675
 Alpha  occ. eigenvalues --   -0.37291  -0.35255  -0.32539  -0.27674  -0.26532
 Alpha  occ. eigenvalues --   -0.15854
 Alpha virt. eigenvalues --   -0.03311   0.07647   0.08824   0.13737   0.14610
 Alpha virt. eigenvalues --    0.15792   0.16764   0.19264   0.20838   0.23258
 Alpha virt. eigenvalues --    0.25416   0.32955   0.53288   0.54083   0.55515
 Alpha virt. eigenvalues --    0.59179   0.63073   0.63753   0.68178   0.72615
 Alpha virt. eigenvalues --    0.76304   0.78238   0.79819   0.81504   0.82267
 Alpha virt. eigenvalues --    0.85347   0.87395   0.90591   0.93228   0.95034
 Alpha virt. eigenvalues --    0.97332   0.98357   1.00640   1.04861   1.08618
 Alpha virt. eigenvalues --    1.14267   1.21456   1.29857   1.30956   1.43666
 Alpha virt. eigenvalues --    1.43973   1.52059   1.56845   1.59186   1.64121
 Alpha virt. eigenvalues --    1.71087   1.75263   1.80738   1.82703   1.90623
 Alpha virt. eigenvalues --    1.92374   1.95072   1.96494   1.98559   2.02000
 Alpha virt. eigenvalues --    2.07656   2.09523   2.11965   2.13934   2.27366
 Alpha virt. eigenvalues --    2.35727   2.38510   2.39378   2.45562   2.50776
 Alpha virt. eigenvalues --    2.52273   2.55608   2.59089   2.61350   2.64243
 Alpha virt. eigenvalues --    2.67106   2.68202   2.72132   2.72797   2.74741
 Alpha virt. eigenvalues --    2.80889   2.82281   2.88816   2.99096   3.02527
 Alpha virt. eigenvalues --    3.05686   3.31373   3.32460   3.36486   3.44358
 Alpha virt. eigenvalues --    3.44545   3.48771   3.49421   3.62735   3.89511
 Alpha virt. eigenvalues --    3.92478   4.36433   4.47336   4.68407
          Condensed to atoms (all electrons):
               1          2          3          4          5          6
     1  C    4.773849   0.391250   0.383326   0.296194   0.006695   0.017386
     2  H    0.391250   0.719884  -0.067052  -0.065027  -0.032010  -0.001031
     3  H    0.383326  -0.067052   0.672936  -0.045120   0.010741  -0.024712
     4  C    0.296194  -0.065027  -0.045120   5.501949   0.319112   0.305725
     5  H    0.006695  -0.032010   0.010741   0.319112   0.517199  -0.051950
     6  H    0.017386  -0.001031  -0.024712   0.305725  -0.051950   0.531983
     7  C   -0.063556   0.000878   0.003638   0.324062   0.021456  -0.002243
     8  H    0.001601   0.000683  -0.000330  -0.043818  -0.034707   0.012309
     9  H    0.003356  -0.000486   0.000319  -0.038817   0.005788  -0.025829
    10  O    0.187376  -0.059706  -0.032262  -0.052374   0.000274   0.001038
    11  H   -0.010592   0.002995  -0.005816   0.006512   0.000334  -0.000185
    12  O    0.001525   0.003666  -0.000329  -0.097376  -0.002754   0.008981
    13  H    0.000016  -0.000344   0.000026   0.010382   0.000398   0.000723
               7          8          9         10         11         12
     1  C   -0.063556   0.001601   0.003356   0.187376  -0.010592   0.001525
     2  H    0.000878   0.000683  -0.000486  -0.059706   0.002995   0.003666
     3  H    0.003638  -0.000330   0.000319  -0.032262  -0.005816  -0.000329
     4  C    0.324062  -0.043818  -0.038817  -0.052374   0.006512  -0.097376
     5  H    0.021456  -0.034707   0.005788   0.000274   0.000334  -0.002754
     6  H   -0.002243   0.012309  -0.025829   0.001038  -0.000185   0.008981
     7  C    4.814274   0.390691   0.384014   0.001467  -0.000152   0.161692
     8  H    0.390691   0.662361  -0.058478   0.000016   0.000001  -0.039555
     9  H    0.384014  -0.058478   0.662972  -0.000007   0.000000  -0.057354
    10  O    0.001467   0.000016  -0.000007   8.216469   0.260581  -0.000018
    11  H   -0.000152   0.000001   0.000000   0.260581   0.449321   0.000005
    12  O    0.161692  -0.039555  -0.057354  -0.000018   0.000005   8.312992
    13  H   -0.004388  -0.002014   0.000572   0.000002   0.000000   0.245107
              13
     1  C    0.000016
     2  H   -0.000344
     3  H    0.000026
     4  C    0.010382
     5  H    0.000398
     6  H    0.000723
     7  C   -0.004388
     8  H   -0.002014
     9  H    0.000572
    10  O    0.000002
    11  H    0.000000
    12  O    0.245107
    13  H    0.458772
 Mulliken charges:
               1
     1  C    0.011576
     2  H    0.106300
     3  H    0.104636
     4  C   -0.421405
     5  H    0.239421
     6  H    0.227806
     7  C   -0.031833
     8  H    0.111239
     9  H    0.123950
    10  O   -0.522856
    11  H    0.296997
    12  O   -0.536581
    13  H    0.290750
 Sum of Mulliken charges =   0.00000
 Mulliken charges with hydrogens summed into heavy atoms:
               1
     1  C    0.222512
     4  C    0.045822
     7  C    0.203356
    10  O   -0.225859
    12  O   -0.245831
 Electronic spatial extent (au):  <R**2>=            599.3604
 Charge=              0.0000 electrons
 Dipole moment (field-independent basis, Debye):
    X=             -1.4320    Y=              1.8872    Z=             -0.4564  Tot=              2.4126
 Quadrupole moment (field-independent basis, Debye-Ang):
   XX=            -22.1103   YY=            -34.7821   ZZ=            -30.6492
   XY=              7.0494   XZ=              0.4076   YZ=              2.2517
 Traceless Quadrupole moment (field-independent basis, Debye-Ang):
   XX=              7.0702   YY=             -5.6016   ZZ=             -1.4686
   XY=              7.0494   XZ=              0.4076   YZ=              2.2517
 Octapole moment (field-independent basis, Debye-Ang**2):
  XXX=             -6.9094  YYY=              6.1073  ZZZ=             -1.7894  XYY=              0.0936
  XXY=             12.0670  XXZ=             -1.4718  XZZ=             -1.1204  YZZ=              1.9433
  YYZ=             -2.7235  XYZ=              0.4072
 Hexadecapole moment (field-independent basis, Debye-Ang**3):
 XXXX=           -372.8399 YYYY=           -107.4012 ZZZZ=            -52.5258 XXXY=             18.3756
 XXXZ=              6.2202 YYYX=             -1.9192 YYYZ=              3.3466 ZZZX=             -0.8698
 ZZZY=              3.5733 XXYY=           -108.0380 XXZZ=           -103.0285 YYZZ=            -26.2979
 XXYZ=             -2.5292 YYXZ=             -0.7509 ZZXY=              0.6773
 N-N= 1.863511259135D+02 E-N=-1.003152948868D+03  KE= 2.675008439660D+02
 Calling FoFJK, ICntrl=      2127 FMM=F ISym2X=0 I1Cent= 0 IOpClX= 0 NMat=1 NMatS=1 NMatT=0.
 ***** Axes restored to original set *****
 -------------------------------------------------------------------
 Center     Atomic                   Forces (Hartrees/Bohr)
 Number     Number              X              Y              Z
 -------------------------------------------------------------------
      1        6          -0.029273519    0.003303028   -0.008871709
      2        1          -0.009157157   -0.022157417   -0.003056513
      3        1          -0.008135244   -0.001007781    0.016386383
      4        6           0.009551674    0.055199425   -0.000318680
      5        1           0.001071645   -0.012925733   -0.008454701
      6        1          -0.002580127   -0.010882414    0.010201706
      7        6           0.004621962   -0.017551488   -0.003076684
      8        1           0.011342129    0.004634205   -0.015114883
      9        1           0.008848339    0.012511640    0.010824202
     10        8           0.016275246    0.006126827   -0.004938144
     11        1          -0.006002789   -0.005295070    0.004170177
     12        8          -0.007148857   -0.009544867    0.002384027
     13        1           0.010586698   -0.002410355   -0.000135181
 -------------------------------------------------------------------
 Cartesian Forces:  Max     0.055199425 RMS     0.013603469

 GradGradGradGradGradGradGradGradGradGradGradGradGradGradGradGradGradGrad
 Berny optimization.
 FormGI is forming the generalized inverse of G from B-inverse, IUseBI=4.
 Internal  Forces:  Max     0.040594968 RMS     0.010070966
 Search for a local minimum.
 Step number   1 out of a maximum of   66
 All quantities printed in internal units (Hartrees-Bohrs-Radians)
 Mixed Optimization -- RFO/linear search
 Second derivative matrix not updated -- first step.
 ITU=  0
     Eigenvalues ---    0.00237   0.00237   0.01295   0.01295   0.01795
     Eigenvalues ---    0.04658   0.05139   0.05139   0.05816   0.05816
     Eigenvalues ---    0.11239   0.11239   0.12001   0.13704   0.13704
     Eigenvalues ---    0.14394   0.16000   0.16000   0.22071   0.22071
     Eigenvalues ---    0.23754   0.28519   0.28519   0.37230   0.37230
     Eigenvalues ---    0.37230   0.37230   0.37230   0.37230   0.40989
     Eigenvalues ---    0.40989   0.55473   0.55473
 RFO step:  Lambda=-2.04617614D-02 EMin= 2.36824092D-03
 Linear search not attempted -- first point.
 Iteration  1 RMS(Cart)=  0.09855814 RMS(Int)=  0.00313665
 Iteration  2 RMS(Cart)=  0.00361736 RMS(Int)=  0.00043826
 Iteration  3 RMS(Cart)=  0.00001112 RMS(Int)=  0.00043818
 Iteration  4 RMS(Cart)=  0.00000001 RMS(Int)=  0.00043818
 Variable       Old X    -DE/DX   Delta X   Delta X   Delta X     New X
                                 (Linear)    (Quad)   (Total)
    R1        2.02201   0.02208   0.00000   0.05621   0.05621   2.07821
    R2        2.02201   0.01818   0.00000   0.04628   0.04628   2.06829
    R3        2.91018   0.04059   0.00000   0.13281   0.13281   3.04299
    R4        2.70231  -0.00482   0.00000  -0.01119  -0.01119   2.69112
    R5        2.02201   0.01257   0.00000   0.03201   0.03201   2.05402
    R6        2.02201   0.01339   0.00000   0.03410   0.03410   2.05611
    R7        2.91018   0.03077   0.00000   0.10067   0.10067   3.01085
    R8        2.02201   0.01837   0.00000   0.04677   0.04677   2.06878
    R9        2.02201   0.01860   0.00000   0.04735   0.04735   2.06936
   R10        2.70231   0.01208   0.00000   0.02808   0.02808   2.73039
   R11        1.81414   0.00754   0.00000   0.01310   0.01310   1.82724
   R12        1.81414   0.01076   0.00000   0.01870   0.01870   1.83284
    A1        1.91063  -0.00577   0.00000  -0.03034  -0.03134   1.87929
    A2        1.91063   0.01249   0.00000   0.07874   0.07856   1.98920
    A3        1.91063   0.00004   0.00000  -0.00917  -0.00790   1.90273
    A4        1.91063   0.00293   0.00000   0.01077   0.01003   1.92066
    A5        1.91063   0.00442   0.00000   0.00750   0.00735   1.91798
    A6        1.91063  -0.01411   0.00000  -0.05750  -0.05698   1.85365
    A7        1.41761   0.00309   0.00000   0.00465   0.00571   1.42332
    A8        1.47529  -0.00263   0.00000  -0.01959  -0.01968   1.45561
    A9        2.45261   0.00807   0.00000   0.03747   0.03700   2.48961
   A10        2.38980  -0.00360   0.00000  -0.06118  -0.06107   2.32874
   A11        1.47529  -0.00192   0.00000  -0.02459  -0.02371   1.45158
   A12        1.41761   0.00485   0.00000   0.02716   0.02741   1.44502
   A13        1.91063   0.00134   0.00000   0.01535   0.01470   1.92533
   A14        1.91063  -0.00552   0.00000  -0.03552  -0.03550   1.87513
   A15        1.91063   0.00880   0.00000   0.04334   0.04298   1.95362
   A16        1.91063  -0.00114   0.00000  -0.02790  -0.02800   1.88263
   A17        1.91063  -0.00299   0.00000   0.00004  -0.00086   1.90977
   A18        1.91063  -0.00049   0.00000   0.00470   0.00516   1.91580
   A19        1.91114  -0.00901   0.00000  -0.04992  -0.04992   1.86121
   A20        1.91114  -0.00229   0.00000  -0.01271  -0.01271   1.89843
    D1        0.86915  -0.00271   0.00000  -0.00028  -0.00094   0.86821
    D2       -1.56081   0.00121   0.00000   0.05947   0.05904  -1.50178
    D3       -0.35553   0.00123   0.00000   0.05744   0.05661  -0.29892
    D4        2.96355  -0.00034   0.00000   0.01738   0.01759   2.98113
    D5        0.53358   0.00358   0.00000   0.07713   0.07756   0.61115
    D6        1.73886   0.00360   0.00000   0.07509   0.07514   1.81400
    D7       -1.22524  -0.00178   0.00000  -0.00205  -0.00167  -1.22691
    D8        2.62798   0.00214   0.00000   0.05769   0.05831   2.68628
    D9       -2.44993   0.00216   0.00000   0.05566   0.05589  -2.39404
   D10        1.19962  -0.00369   0.00000  -0.03154  -0.03181   1.16781
   D11       -0.89478   0.00065   0.00000   0.00664   0.00674  -0.88803
   D12       -2.98917   0.00300   0.00000   0.02407   0.02423  -2.96494
   D13        1.73886   0.00374   0.00000   0.07606   0.07588   1.81474
   D14       -2.44993  -0.00022   0.00000   0.02953   0.02935  -2.42058
   D15       -0.35553   0.00120   0.00000   0.04008   0.03935  -0.31619
   D16        0.53358   0.00572   0.00000   0.12240   0.12280   0.65638
   D17        2.62798   0.00177   0.00000   0.07587   0.07627   2.70425
   D18       -1.56081   0.00318   0.00000   0.08642   0.08626  -1.47455
   D19        2.96355   0.00098   0.00000   0.05707   0.05740   3.02094
   D20       -1.22524  -0.00297   0.00000   0.01054   0.01087  -1.21437
   D21        0.86915  -0.00156   0.00000   0.02108   0.02086   0.89001
   D22       -3.03740   0.00186   0.00000   0.00703   0.00696  -3.03044
   D23        1.15139  -0.00333   0.00000  -0.03833  -0.03845   1.11293
   D24       -0.94301   0.00019   0.00000  -0.00705  -0.00686  -0.94987
         Item               Value     Threshold  Converged?
 Maximum Force            0.040595     0.000015     NO 
 RMS     Force            0.010071     0.000010     NO 
 Maximum Displacement     0.367914     0.000060     NO 
 RMS     Displacement     0.099082     0.000040     NO 
 Predicted change in Energy=-1.161868D-02
 GradGradGradGradGradGradGradGradGradGradGradGradGradGradGradGradGradGrad

                          Input orientation:                          
 ---------------------------------------------------------------------
 Center     Atomic      Atomic             Coordinates (Angstroms)
 Number     Number       Type             X           Y           Z
 ---------------------------------------------------------------------
      1          6           0       -1.536895   -0.103079    0.018239
      2          1           0       -1.661111   -1.156414   -0.272432
      3          1           0       -1.964612    0.018330    1.018354
      4          6           0       -0.008238    0.402966    0.006517
      5          1           0       -0.033328   -0.052345   -0.980145
      6          1           0        0.001547   -0.001106    1.016701
      7          6           0        1.497860   -0.116783   -0.000696
      8          1           0        1.931761   -0.010594   -1.000163
      9          1           0        2.068336    0.520909    0.682717
     10          8           0       -2.235202    0.720099   -0.910602
     11          1           0       -3.176653    0.534038   -0.792222
     12          8           0        1.595140   -1.495205    0.421330
     13          1           0        2.532371   -1.732956    0.497313
 ---------------------------------------------------------------------
                    Distance matrix (angstroms):
                    1          2          3          4          5
     1  C    0.000000
     2  H    1.099743   0.000000
     3  H    1.094491   1.771514   0.000000
     4  C    1.610283   2.289425   2.235879   0.000000
     5  H    1.805563   2.090335   2.780081   1.086940   0.000000
     6  H    1.836880   2.400215   1.966255   1.088045   1.997808
     7  C    3.034845   3.336731   3.611846   1.593275   1.818794
     8  H    3.616251   3.840733   4.388276   2.224418   1.965635
     9  H    3.718679   4.199344   4.077977   2.187079   2.740570
    10  O    1.424079   2.063527   2.070403   2.429207   2.334471
    11  H    1.936897   2.329094   2.239014   3.270170   3.203068
    12  O    3.451107   3.346529   3.913957   2.519116   2.588028
    13  H    4.409641   4.302348   4.854002   3.355255   3.404430
                    6          7          8          9         10
     6  H    0.000000
     7  C    1.813128   0.000000
     8  H    2.791695   1.094751   0.000000
     9  H    2.157698   1.095056   1.770094   0.000000
    10  O    3.039355   3.932436   4.231492   4.593341   0.000000
    11  H    3.695881   4.785515   5.141571   5.448442   0.966934
    12  O    2.264142   1.444859   2.082793   2.087331   4.620945
    13  H    3.110328   1.982483   2.360020   2.308594   5.543415
                   11         12         13
    11  H    0.000000
    12  O    5.325462   0.000000
    13  H    6.276552   0.969897   0.000000
 Stoichiometry    C3H8O2
 Framework group  C1[X(C3H8O2)]
 Deg. of freedom    33
 Full point group                 C1      NOp   1
 Largest Abelian subgroup         C1      NOp   1
 Largest concise Abelian subgroup C1      NOp   1
                         Standard orientation:                         
 ---------------------------------------------------------------------
 Center     Atomic      Atomic             Coordinates (Angstroms)
 Number     Number       Type             X           Y           Z
 ---------------------------------------------------------------------
      1          6           0        1.293438    0.520439    0.184052
      2          1           0        1.122295    1.344573   -0.523723
      3          1           0        1.526825    0.961890    1.157994
      4          6           0        0.049679   -0.493100    0.321214
      5          1           0        0.122549   -0.475507   -0.763138
      6          1           0       -0.294723    0.228117    1.059507
      7          6           0       -1.509488   -0.632101    0.024227
      8          1           0       -1.674314   -1.267412   -0.851953
      9          1           0       -1.965319   -1.126683    0.888376
     10          8           0        2.394250   -0.260437   -0.270312
     11          1           0        3.178930    0.300268   -0.200677
     12          8           0       -2.134841    0.652764   -0.189484
     13          1           0       -3.093279    0.524707   -0.264978
 ---------------------------------------------------------------------
 Rotational constants (GHZ):     15.1564877      2.0150219      1.8892664
 Standard basis: 6-31G(d,p) (6D, 7F)
 There are   115 symmetry adapted cartesian basis functions of A   symmetry.
 There are   115 symmetry adapted basis functions of A   symmetry.
   115 basis functions,   196 primitive gaussians,   115 cartesian basis functions
    21 alpha electrons       21 beta electrons
       nuclear repulsion energy       182.0828387714 Hartrees.
 NAtoms=   13 NActive=   13 NUniq=   13 SFac= 1.00D+00 NAtFMM=   60 NAOKFM=F Big=F
 Integral buffers will be    131072 words long.
 Raffenetti 2 integral format.
 Two-electron integral symmetry is turned on.
 One-electron integrals computed using PRISM.
 NBasis=   115 RedAO= T EigKep=  4.99D-03  NBF=   115
 NBsUse=   115 1.00D-06 EigRej= -1.00D+00 NBFU=   115
 Initial guess from the checkpoint file:  "/scratch/users/apinto/lixo/Gau-1054409.chk"
 B after Tr=     0.000000    0.000000    0.000000
         Rot=    0.999944    0.009837   -0.003375    0.001959 Ang=   1.21 deg.
 ExpMin= 1.61D-01 ExpMax= 5.48D+03 ExpMxC= 8.25D+02 IAcc=1 IRadAn=         1 AccDes= 0.00D+00
 Harris functional with IExCor=  402 and IRadAn=       1 diagonalized for initial guess.
 HarFok:  IExCor=  402 AccDes= 0.00D+00 IRadAn=         1 IDoV= 1 UseB2=F ITyADJ=14
 ICtDFT=  3500011 ScaDFX=  1.000000  1.000000  1.000000  1.000000
 FoFCou: FMM=F IPFlag=           0 FMFlag=      100000 FMFlg1=           0
         NFxFlg=           0 DoJE=T BraDBF=F KetDBF=T FulRan=T
         wScrn=  0.000000 ICntrl=     500 IOpCl=  0 I1Cent=   200000004 NGrid=           0
         NMat0=    1 NMatS0=      1 NMatT0=    0 NMatD0=    1 NMtDS0=    0 NMtDT0=    0
 Petite list used in FoFCou.
 Keep R1 ints in memory in canonical form, NReq=23243465.
 Requested convergence on RMS density matrix=1.00D-08 within 128 cycles.
 Requested convergence on MAX density matrix=1.00D-06.
 Requested convergence on             energy=1.00D-06.
 No special actions if energy rises.
 Integral accuracy reduced to 1.0D-05 until final iterations.
 Initial convergence to 1.0D-05 achieved.  Increase integral accuracy.
 SCF Done:  E(RB3LYP) =  -269.334303845     A.U. after   15 cycles
            NFock= 15  Conv=0.54D-08     -V/T= 2.0084
 Calling FoFJK, ICntrl=      2127 FMM=F ISym2X=0 I1Cent= 0 IOpClX= 0 NMat=1 NMatS=1 NMatT=0.
 ***** Axes restored to original set *****
 -------------------------------------------------------------------
 Center     Atomic                   Forces (Hartrees/Bohr)
 Number     Number              X              Y              Z
 -------------------------------------------------------------------
      1        6          -0.014426107    0.009809624   -0.006845227
      2        1           0.003740244   -0.002169940    0.001432679
      3        1           0.002931591    0.001051790    0.003035985
      4        6           0.005568502    0.024523940    0.001442003
      5        1          -0.001323606   -0.020233272    0.000606612
      6        1          -0.000851386   -0.017593276    0.001175424
      7        6           0.011247457   -0.001938739    0.000660522
      8        1          -0.001647128    0.003123835   -0.000989983
      9        1          -0.001594905    0.000830533    0.001981102
     10        8           0.003689040   -0.001799679    0.000604075
     11        1          -0.002294587   -0.000263142   -0.000262745
     12        8          -0.005796751    0.002438967   -0.001588006
     13        1           0.000757636    0.002219360   -0.001252441
 -------------------------------------------------------------------
 Cartesian Forces:  Max     0.024523940 RMS     0.007110087

 GradGradGradGradGradGradGradGradGradGradGradGradGradGradGradGradGradGrad
 Berny optimization.
 Using GEDIIS/GDIIS optimizer.
 FormGI is forming the generalized inverse of G from B-inverse, IUseBI=4.
 Internal  Forces:  Max     0.014610331 RMS     0.004047170
 Search for a local minimum.
 Step number   2 out of a maximum of   66
 All quantities printed in internal units (Hartrees-Bohrs-Radians)
 Mixed Optimization -- RFO/linear search
 Update second derivatives using D2CorX and points    1    2
 DE= -1.21D-02 DEPred=-1.16D-02 R= 1.04D+00
 TightC=F SS=  1.41D+00  RLast= 3.66D-01 DXNew= 5.0454D-01 1.0987D+00
 Trust test= 1.04D+00 RLast= 3.66D-01 DXMaxT set to 5.05D-01
 ITU=  1  0
 Use linear search instead of GDIIS.
     Eigenvalues ---    0.00236   0.00238   0.01294   0.01295   0.01591
     Eigenvalues ---    0.03379   0.04847   0.05231   0.05630   0.05979
     Eigenvalues ---    0.11372   0.11557   0.12394   0.13621   0.14037
     Eigenvalues ---    0.14590   0.15803   0.16257   0.21389   0.22077
     Eigenvalues ---    0.22868   0.28465   0.31716   0.35469   0.37230
     Eigenvalues ---    0.37230   0.37230   0.37230   0.39055   0.40955
     Eigenvalues ---    0.45109   0.55378   0.55762
 RFO step:  Lambda=-1.34484392D-02 EMin= 2.35953936D-03
 Quartic linear search produced a step of  0.29781.
 Iteration  1 RMS(Cart)=  0.11926861 RMS(Int)=  0.01001464
 Iteration  2 RMS(Cart)=  0.01022250 RMS(Int)=  0.00173480
 Iteration  3 RMS(Cart)=  0.00013154 RMS(Int)=  0.00173226
 Iteration  4 RMS(Cart)=  0.00000037 RMS(Int)=  0.00173226
 Variable       Old X    -DE/DX   Delta X   Delta X   Delta X     New X
                                 (Linear)    (Quad)   (Total)
    R1        2.07821   0.00128   0.01674   0.01698   0.03372   2.11193
    R2        2.06829   0.00175   0.01378   0.01610   0.02988   2.09817
    R3        3.04299   0.00394   0.03955   0.04622   0.08577   3.12876
    R4        2.69112  -0.00210  -0.00333  -0.00847  -0.01180   2.67932
    R5        2.05402   0.00796   0.00953   0.03179   0.04133   2.09535
    R6        2.05611   0.00761   0.01016   0.03122   0.04138   2.09748
    R7        3.01085   0.00063   0.02998   0.02571   0.05569   3.06654
    R8        2.06878   0.00056   0.01393   0.01257   0.02650   2.09528
    R9        2.06936   0.00089   0.01410   0.01373   0.02783   2.09719
   R10        2.73039  -0.00562   0.00836  -0.00911  -0.00075   2.72964
   R11        1.82724   0.00225   0.00390   0.00776   0.01166   1.83890
   R12        1.83284   0.00009   0.00557   0.00458   0.01015   1.84299
    A1        1.87929   0.00208  -0.00933   0.00036  -0.00969   1.86960
    A2        1.98920  -0.00381   0.02340  -0.01899   0.00437   1.99356
    A3        1.90273   0.00143  -0.00235   0.01934   0.01727   1.92000
    A4        1.92066  -0.00372   0.00299  -0.03152  -0.02870   1.89197
    A5        1.91798   0.00214   0.00219   0.03293   0.03482   1.95280
    A6        1.85365   0.00208  -0.01697   0.00063  -0.01612   1.83753
    A7        1.42332   0.00133   0.00170  -0.01824  -0.00904   1.41427
    A8        1.45561   0.00018  -0.00586  -0.01745  -0.02141   1.43420
    A9        2.48961   0.01461   0.01102   0.09569   0.10128   2.59089
   A10        2.32874  -0.00832  -0.01819  -0.19719  -0.21478   2.11396
   A11        1.45158   0.00159  -0.00706  -0.02264  -0.02214   1.42944
   A12        1.44502   0.00302   0.00816   0.01413   0.02529   1.47031
   A13        1.92533  -0.00216   0.00438  -0.02176  -0.01774   1.90759
   A14        1.87513  -0.00067  -0.01057  -0.01638  -0.02711   1.84802
   A15        1.95362  -0.00340   0.01280  -0.00923   0.00355   1.95717
   A16        1.88263   0.00097  -0.00834   0.00657  -0.00247   1.88017
   A17        1.90977   0.00289  -0.00026   0.01756   0.01702   1.92679
   A18        1.91580   0.00249   0.00154   0.02351   0.02518   1.94097
   A19        1.86121   0.00095  -0.01487  -0.00476  -0.01963   1.84159
   A20        1.89843  -0.00477  -0.00378  -0.03530  -0.03909   1.85934
    D1        0.86821  -0.00302  -0.00028  -0.03402  -0.03525   0.83296
    D2       -1.50178   0.00628   0.01758   0.16339   0.18175  -1.32002
    D3       -0.29892   0.00268   0.01686   0.10285   0.11918  -0.17974
    D4        2.98113  -0.00572   0.00524  -0.07002  -0.06545   2.91569
    D5        0.61115   0.00358   0.02310   0.12739   0.15156   0.76270
    D6        1.81400  -0.00002   0.02238   0.06685   0.08898   1.90299
    D7       -1.22691  -0.00395  -0.00050  -0.04726  -0.04829  -1.27520
    D8        2.68628   0.00535   0.01736   0.15015   0.16872   2.85500
    D9       -2.39404   0.00175   0.01664   0.08961   0.10614  -2.28790
   D10        1.16781   0.00223  -0.00947   0.00763  -0.00164   1.16617
   D11       -0.88803  -0.00238   0.00201  -0.02334  -0.02170  -0.90974
   D12       -2.96494  -0.00029   0.00722  -0.00375   0.00365  -2.96129
   D13        1.81474   0.00095   0.02260   0.07771   0.09915   1.91389
   D14       -2.42058   0.00054   0.00874   0.06423   0.07213  -2.34844
   D15       -0.31619   0.00113   0.01172   0.07700   0.08755  -0.22864
   D16        0.65638   0.00650   0.03657   0.21131   0.24844   0.90482
   D17        2.70425   0.00609   0.02271   0.19784   0.22142   2.92567
   D18       -1.47455   0.00668   0.02569   0.21060   0.23684  -1.23771
   D19        3.02094  -0.00364   0.01709   0.00658   0.02397   3.04492
   D20       -1.21437  -0.00404   0.00324  -0.00689  -0.00304  -1.21741
   D21        0.89001  -0.00346   0.00621   0.00587   0.01237   0.90239
   D22       -3.03044  -0.00086   0.00207  -0.01943  -0.01736  -3.04781
   D23        1.11293   0.00215  -0.01145   0.00215  -0.00919   1.10375
   D24       -0.94987  -0.00222  -0.00204  -0.03025  -0.03239  -0.98226
         Item               Value     Threshold  Converged?
 Maximum Force            0.014610     0.000015     NO 
 RMS     Force            0.004047     0.000010     NO 
 Maximum Displacement     0.386629     0.000060     NO 
 RMS     Displacement     0.122661     0.000040     NO 
 Predicted change in Energy=-8.814365D-03
 GradGradGradGradGradGradGradGradGradGradGradGradGradGradGradGradGradGrad

                          Input orientation:                          
 ---------------------------------------------------------------------
 Center     Atomic      Atomic             Coordinates (Angstroms)
 Number     Number       Type             X           Y           Z
 ---------------------------------------------------------------------
      1          6           0       -1.612463   -0.067896    0.037474
      2          1           0       -1.801495   -1.155688   -0.135644
      3          1           0       -2.030743    0.181801    1.035207
      4          6           0       -0.011635    0.354395    0.021274
      5          1           0       -0.038493   -0.256941   -0.903390
      6          1           0       -0.032413   -0.120953    1.024061
      7          6           0        1.542024   -0.113954    0.011633
      8          1           0        1.986244    0.110521   -0.979156
      9          1           0        2.055233    0.520661    0.763630
     10          8           0       -2.211660    0.698753   -0.993773
     11          1           0       -3.171144    0.582611   -0.880492
     12          8           0        1.689645   -1.516622    0.323399
     13          1           0        2.647876   -1.688828    0.380688
 ---------------------------------------------------------------------
                    Distance matrix (angstroms):
                    1          2          3          4          5
     1  C    0.000000
     2  H    1.117584   0.000000
     3  H    1.110305   1.792296   0.000000
     4  C    1.655670   2.347035   2.265976   0.000000
     5  H    1.843460   2.122583   2.814199   1.108809   0.000000
     6  H    1.863525   2.354834   2.021165   1.109941   1.932253
     7  C    3.154929   3.505142   3.728248   1.622744   1.831870
     8  H    3.743803   4.081882   4.494321   2.247633   2.059206
     9  H    3.784930   4.300371   4.108988   2.202425   2.786989
    10  O    1.417836   2.084124   2.101602   2.447247   2.375748
    11  H    1.922318   2.335041   2.265185   3.293594   3.243281
    12  O    3.617247   3.539640   4.151217   2.546829   2.465415
    13  H    4.571182   4.510847   5.081056   3.372972   3.303897
                    6          7          8          9         10
     6  H    0.000000
     7  C    1.871873   0.000000
     8  H    2.853320   1.108776   0.000000
     9  H    2.199491   1.109783   1.791724   0.000000
    10  O    3.081021   3.970073   4.238943   4.618069   0.000000
    11  H    3.738175   4.847168   5.179890   5.479232   0.973103
    12  O    2.324716   1.444461   2.105282   2.116123   4.675790
    13  H    3.171137   1.959423   2.350444   2.319420   5.586124
                   11         12         13
    11  H    0.000000
    12  O    5.429862   0.000000
    13  H    6.372676   0.975266   0.000000
 Stoichiometry    C3H8O2
 Framework group  C1[X(C3H8O2)]
 Deg. of freedom    33
 Full point group                 C1      NOp   1
 Largest Abelian subgroup         C1      NOp   1
 Largest concise Abelian subgroup C1      NOp   1
                         Standard orientation:                         
 ---------------------------------------------------------------------
 Center     Atomic      Atomic             Coordinates (Angstroms)
 Number     Number       Type             X           Y           Z
 ---------------------------------------------------------------------
      1          6           0        1.389942    0.521195    0.236971
      2          1           0        1.249367    1.444479   -0.376853
      3          1           0        1.666901    0.848614    1.261114
      4          6           0        0.043733   -0.437031    0.340741
      5          1           0        0.049608   -0.265255   -0.754666
      6          1           0       -0.281640    0.357423    1.044263
      7          6           0       -1.545787   -0.622380    0.071726
      8          1           0       -1.695975   -1.357577   -0.744555
      9          1           0       -1.962221   -1.060902    1.002263
     10          8           0        2.389296   -0.299952   -0.343776
     11          1           0        3.220279    0.198363   -0.253895
     12          8           0       -2.192554    0.628046   -0.251682
     13          1           0       -3.147584    0.439403   -0.310638
 ---------------------------------------------------------------------
 Rotational constants (GHZ):     14.7880234      1.9284993      1.8310892
 Standard basis: 6-31G(d,p) (6D, 7F)
 There are   115 symmetry adapted cartesian basis functions of A   symmetry.
 There are   115 symmetry adapted basis functions of A   symmetry.
   115 basis functions,   196 primitive gaussians,   115 cartesian basis functions
    21 alpha electrons       21 beta electrons
       nuclear repulsion energy       179.7041867529 Hartrees.
 NAtoms=   13 NActive=   13 NUniq=   13 SFac= 1.00D+00 NAtFMM=   60 NAOKFM=F Big=F
 Integral buffers will be    131072 words long.
 Raffenetti 2 integral format.
 Two-electron integral symmetry is turned on.
 One-electron integrals computed using PRISM.
 NBasis=   115 RedAO= T EigKep=  5.17D-03  NBF=   115
 NBsUse=   115 1.00D-06 EigRej= -1.00D+00 NBFU=   115
 Initial guess from the checkpoint file:  "/scratch/users/apinto/lixo/Gau-1054409.chk"
 B after Tr=     0.000000    0.000000    0.000000
         Rot=    0.999937    0.010348   -0.002891    0.003335 Ang=   1.29 deg.
 ExpMin= 1.61D-01 ExpMax= 5.48D+03 ExpMxC= 8.25D+02 IAcc=1 IRadAn=         1 AccDes= 0.00D+00
 Harris functional with IExCor=  402 and IRadAn=       1 diagonalized for initial guess.
 HarFok:  IExCor=  402 AccDes= 0.00D+00 IRadAn=         1 IDoV= 1 UseB2=F ITyADJ=14
 ICtDFT=  3500011 ScaDFX=  1.000000  1.000000  1.000000  1.000000
 FoFCou: FMM=F IPFlag=           0 FMFlag=      100000 FMFlg1=           0
         NFxFlg=           0 DoJE=T BraDBF=F KetDBF=T FulRan=T
         wScrn=  0.000000 ICntrl=     500 IOpCl=  0 I1Cent=   200000004 NGrid=           0
         NMat0=    1 NMatS0=      1 NMatT0=    0 NMatD0=    1 NMtDS0=    0 NMtDT0=    0
 Petite list used in FoFCou.
 Keep R1 ints in memory in canonical form, NReq=23243465.
 Requested convergence on RMS density matrix=1.00D-08 within 128 cycles.
 Requested convergence on MAX density matrix=1.00D-06.
 Requested convergence on             energy=1.00D-06.
 No special actions if energy rises.
 Integral accuracy reduced to 1.0D-05 until final iterations.
 Initial convergence to 1.0D-05 achieved.  Increase integral accuracy.
 SCF Done:  E(RB3LYP) =  -269.354060514     A.U. after   13 cycles
            NFock= 13  Conv=0.86D-08     -V/T= 2.0093
 Calling FoFJK, ICntrl=      2127 FMM=F ISym2X=0 I1Cent= 0 IOpClX= 0 NMat=1 NMatS=1 NMatT=0.
 ***** Axes restored to original set *****
 -------------------------------------------------------------------
 Center     Atomic                   Forces (Hartrees/Bohr)
 Number     Number              X              Y              Z
 -------------------------------------------------------------------
      1        6          -0.005062030    0.038376117   -0.003935876
      2        1           0.013139443    0.009462782    0.001956565
      3        1           0.003814297    0.000782345   -0.006123624
      4        6          -0.000365669   -0.027738725    0.002827829
      5        1          -0.000938979   -0.029598594    0.010022581
      6        1           0.001437224   -0.028948866   -0.005099329
      7        6           0.016363711    0.036687819   -0.000064239
      8        1          -0.005138522   -0.001244885    0.006595276
      9        1          -0.001280774   -0.008199264   -0.003458124
     10        8          -0.011704929   -0.006673650    0.005540380
     11        1           0.002005114    0.002112813   -0.004175755
     12        8          -0.006531383    0.012088176   -0.003143794
     13        1          -0.005737503    0.002893932   -0.000941890
 -------------------------------------------------------------------
 Cartesian Forces:  Max     0.038376117 RMS     0.013105743

 GradGradGradGradGradGradGradGradGradGradGradGradGradGradGradGradGradGrad
 Berny optimization.
 Using GEDIIS/GDIIS optimizer.
 FormGI is forming the generalized inverse of G from B-inverse, IUseBI=4.
 Internal  Forces:  Max     0.071156405 RMS     0.013344610
 Search for a local minimum.
 Step number   3 out of a maximum of   66
 All quantities printed in internal units (Hartrees-Bohrs-Radians)
 Mixed Optimization -- RFO/linear search
 Update second derivatives using D2CorX and points    2    3
 DE= -1.98D-02 DEPred=-8.81D-03 R= 2.24D+00
 TightC=F SS=  1.41D+00  RLast= 6.33D-01 DXNew= 8.4853D-01 1.8982D+00
 Trust test= 2.24D+00 RLast= 6.33D-01 DXMaxT set to 8.49D-01
 ITU=  1  1  0
 Use linear search instead of GDIIS.
     Eigenvalues ---   -0.61123   0.00209   0.00242   0.01033   0.01271
     Eigenvalues ---    0.01296   0.01600   0.04852   0.05325   0.05803
     Eigenvalues ---    0.06242   0.10842   0.11270   0.13465   0.13648
     Eigenvalues ---    0.14051   0.15066   0.15671   0.16217   0.21975
     Eigenvalues ---    0.22583   0.26684   0.28661   0.34430   0.37191
     Eigenvalues ---    0.37230   0.37230   0.37230   0.37755   0.40914
     Eigenvalues ---    0.41514   0.55073   0.55525
 RFO step:  Lambda=-6.26379400D-01 EMin=-6.11229767D-01
 Skip linear search -- no minimum in search direction.
 Maximum step size (   0.849) exceeded in Quadratic search.
    -- Step size scaled by   0.890
 Iteration  1 RMS(Cart)=  0.12283001 RMS(Int)=  0.05412875
 Iteration  2 RMS(Cart)=  0.02346220 RMS(Int)=  0.04772871
 Iteration  3 RMS(Cart)=  0.00039532 RMS(Int)=  0.04762111
 Iteration  4 RMS(Cart)=  0.00039007 RMS(Int)=  0.04751495
 Iteration  5 RMS(Cart)=  0.00038522 RMS(Int)=  0.04741011
 Iteration  6 RMS(Cart)=  0.00038072 RMS(Int)=  0.04730651
 Iteration  7 RMS(Cart)=  0.00037651 RMS(Int)=  0.04720405
 Iteration  8 RMS(Cart)=  0.00037256 RMS(Int)=  0.04710267
 Iteration  9 RMS(Cart)=  0.00036883 RMS(Int)=  0.04700231
 Iteration 10 RMS(Cart)=  0.00036531 RMS(Int)=  0.04690291
 Iteration 11 RMS(Cart)=  0.00036196 RMS(Int)=  0.04680443
 Iteration 12 RMS(Cart)=  0.00035877 RMS(Int)=  0.04670681
 Iteration 13 RMS(Cart)=  0.00035572 RMS(Int)=  0.04661004
 Iteration 14 RMS(Cart)=  0.00035279 RMS(Int)=  0.04651406
 Iteration 15 RMS(Cart)=  0.00034999 RMS(Int)=  0.04641884
 Iteration 16 RMS(Cart)=  0.00034728 RMS(Int)=  0.04632437
 Iteration 17 RMS(Cart)=  0.00034468 RMS(Int)=  0.04623061
 Iteration 18 RMS(Cart)=  0.00034216 RMS(Int)=  0.04613753
 Iteration 19 RMS(Cart)=  0.00033972 RMS(Int)=  0.04604513
 Iteration 20 RMS(Cart)=  0.00033736 RMS(Int)=  0.04595337
 Iteration 21 RMS(Cart)=  0.00033506 RMS(Int)=  0.04586224
 Iteration 22 RMS(Cart)=  0.00033283 RMS(Int)=  0.04577171
 Iteration 23 RMS(Cart)=  0.00033066 RMS(Int)=  0.04568179
 Iteration 24 RMS(Cart)=  0.00032854 RMS(Int)=  0.04559244
 Iteration 25 RMS(Cart)=  0.00032648 RMS(Int)=  0.04550365
 Iteration 26 RMS(Cart)=  0.00032446 RMS(Int)=  0.04541542
 Iteration 27 RMS(Cart)=  0.00032249 RMS(Int)=  0.04532772
 Iteration 28 RMS(Cart)=  0.00032057 RMS(Int)=  0.04524055
 Iteration 29 RMS(Cart)=  0.00031868 RMS(Int)=  0.04515390
 Iteration 30 RMS(Cart)=  0.00031683 RMS(Int)=  0.04506776
 Iteration 31 RMS(Cart)=  0.00031502 RMS(Int)=  0.04498210
 Iteration 32 RMS(Cart)=  0.00031324 RMS(Int)=  0.04489694
 Iteration 33 RMS(Cart)=  0.00031150 RMS(Int)=  0.04481225
 Iteration 34 RMS(Cart)=  0.00030979 RMS(Int)=  0.04472803
 Iteration 35 RMS(Cart)=  0.00030810 RMS(Int)=  0.04464428
 Iteration 36 RMS(Cart)=  0.00030645 RMS(Int)=  0.04456097
 Iteration 37 RMS(Cart)=  0.00030482 RMS(Int)=  0.04447811
 Iteration 38 RMS(Cart)=  0.00030322 RMS(Int)=  0.04439569
 Iteration 39 RMS(Cart)=  0.00030164 RMS(Int)=  0.04431370
 Iteration 40 RMS(Cart)=  0.00030009 RMS(Int)=  0.04423214
 Iteration 41 RMS(Cart)=  0.00029856 RMS(Int)=  0.04415099
 Iteration 42 RMS(Cart)=  0.00029705 RMS(Int)=  0.04407026
 Iteration 43 RMS(Cart)=  0.00029556 RMS(Int)=  0.04398993
 Iteration 44 RMS(Cart)=  0.00029410 RMS(Int)=  0.04391001
 Iteration 45 RMS(Cart)=  0.00029265 RMS(Int)=  0.04383048
 Iteration 46 RMS(Cart)=  0.00029122 RMS(Int)=  0.04375134
 Iteration 47 RMS(Cart)=  0.00028981 RMS(Int)=  0.04367259
 Iteration 48 RMS(Cart)=  0.00028842 RMS(Int)=  0.04359422
 Iteration 49 RMS(Cart)=  0.00028705 RMS(Int)=  0.04351622
 Iteration 50 RMS(Cart)=  0.00028569 RMS(Int)=  0.04343860
 Iteration 51 RMS(Cart)=  0.00028435 RMS(Int)=  0.04336135
 Iteration 52 RMS(Cart)=  0.00028302 RMS(Int)=  0.04328445
 Iteration 53 RMS(Cart)=  0.00028171 RMS(Int)=  0.04320792
 Iteration 54 RMS(Cart)=  0.00028042 RMS(Int)=  0.04313174
 Iteration 55 RMS(Cart)=  0.00027914 RMS(Int)=  0.04305592
 Iteration 56 RMS(Cart)=  0.00027787 RMS(Int)=  0.04298044
 Iteration 57 RMS(Cart)=  0.00027661 RMS(Int)=  0.04290530
 Iteration 58 RMS(Cart)=  0.00027537 RMS(Int)=  0.04283050
 Iteration 59 RMS(Cart)=  0.00027415 RMS(Int)=  0.04275604
 Iteration 60 RMS(Cart)=  0.00027293 RMS(Int)=  0.04268191
 Iteration 61 RMS(Cart)=  0.00027173 RMS(Int)=  0.04260811
 Iteration 62 RMS(Cart)=  0.00027054 RMS(Int)=  0.04253464
 Iteration 63 RMS(Cart)=  0.00026936 RMS(Int)=  0.04246149
 Iteration 64 RMS(Cart)=  0.00026819 RMS(Int)=  0.04238866
 Iteration 65 RMS(Cart)=  0.00026703 RMS(Int)=  0.04231615
 Iteration 66 RMS(Cart)=  0.00026589 RMS(Int)=  0.04224395
 Iteration 67 RMS(Cart)=  0.00026475 RMS(Int)=  0.04217207
 Iteration 68 RMS(Cart)=  0.00026363 RMS(Int)=  0.04210049
 Iteration 69 RMS(Cart)=  0.00026251 RMS(Int)=  0.04202921
 Iteration 70 RMS(Cart)=  0.00026141 RMS(Int)=  0.04195824
 Iteration 71 RMS(Cart)=  0.00026031 RMS(Int)=  0.04188757
 Iteration 72 RMS(Cart)=  0.00025923 RMS(Int)=  0.04181720
 Iteration 73 RMS(Cart)=  0.00025815 RMS(Int)=  0.04174712
 Iteration 74 RMS(Cart)=  0.00025709 RMS(Int)=  0.04167733
 Iteration 75 RMS(Cart)=  0.00025603 RMS(Int)=  0.04160783
 Iteration 76 RMS(Cart)=  0.00025498 RMS(Int)=  0.04153862
 Iteration 77 RMS(Cart)=  0.00025394 RMS(Int)=  0.04146969
 Iteration 78 RMS(Cart)=  0.00025291 RMS(Int)=  0.04140105
 Iteration 79 RMS(Cart)=  0.00025189 RMS(Int)=  0.04133269
 Iteration 80 RMS(Cart)=  0.00025087 RMS(Int)=  0.04126460
 Iteration 81 RMS(Cart)=  0.00024987 RMS(Int)=  0.04119679
 Iteration 82 RMS(Cart)=  0.00024887 RMS(Int)=  0.04112926
 Iteration 83 RMS(Cart)=  0.00024788 RMS(Int)=  0.04106199
 Iteration 84 RMS(Cart)=  0.00024690 RMS(Int)=  0.04099500
 Iteration 85 RMS(Cart)=  0.00024592 RMS(Int)=  0.04092827
 Iteration 86 RMS(Cart)=  0.00024495 RMS(Int)=  0.04086180
 Iteration 87 RMS(Cart)=  0.00024399 RMS(Int)=  0.04079560
 Iteration 88 RMS(Cart)=  0.00024304 RMS(Int)=  0.04072966
 Iteration 89 RMS(Cart)=  0.00024210 RMS(Int)=  0.04066398
 Iteration 90 RMS(Cart)=  0.00024116 RMS(Int)=  0.04059856
 Iteration 91 RMS(Cart)=  0.00024023 RMS(Int)=  0.04053339
 Iteration 92 RMS(Cart)=  0.00023930 RMS(Int)=  0.04046848
 Iteration 93 RMS(Cart)=  0.00023838 RMS(Int)=  0.04040382
 Iteration 94 RMS(Cart)=  0.00023747 RMS(Int)=  0.04033940
 Iteration 95 RMS(Cart)=  0.00023657 RMS(Int)=  0.04027524
 Iteration 96 RMS(Cart)=  0.00023567 RMS(Int)=  0.04021132
 Iteration 97 RMS(Cart)=  0.00023478 RMS(Int)=  0.04014765
 Iteration 98 RMS(Cart)=  0.00023389 RMS(Int)=  0.04008422
 Iteration 99 RMS(Cart)=  0.00023301 RMS(Int)=  0.04002103
 Iteration100 RMS(Cart)=  0.00023214 RMS(Int)=  0.03995807
 New curvilinear step not converged.
 ITry= 1 IFail=1 DXMaxC= 5.99D-01 DCOld= 1.00D+10 DXMaxT= 8.49D-01 DXLimC= 3.00D+00 Rises=F
 Iteration  1 RMS(Cart)=  0.11570073 RMS(Int)=  0.04630665
 Iteration  2 RMS(Cart)=  0.06655293 RMS(Int)=  0.02846614
 New curvilinear step failed, DQL= 7.63D+00 SP=-5.21D-02.
 ITry= 2 IFail=1 DXMaxC= 6.23D-01 DCOld= 1.00D+10 DXMaxT= 8.49D-01 DXLimC= 3.00D+00 Rises=F
 Iteration  1 RMS(Cart)=  0.10916081 RMS(Int)=  0.03851064
 Iteration  2 RMS(Cart)=  0.09136885 RMS(Int)=  0.01556175
 Iteration  3 RMS(Cart)=  0.02628092 RMS(Int)=  0.00801130
 Iteration  4 RMS(Cart)=  0.02261901 RMS(Int)=  0.00458402
 Iteration  5 RMS(Cart)=  0.00059449 RMS(Int)=  0.00453425
 Iteration  6 RMS(Cart)=  0.00001194 RMS(Int)=  0.00453424
 Iteration  7 RMS(Cart)=  0.00000001 RMS(Int)=  0.00453424
 ITry= 3 IFail=0 DXMaxC= 8.23D-01 DCOld= 1.00D+10 DXMaxT= 8.49D-01 DXLimC= 3.00D+00 Rises=F
 Variable       Old X    -DE/DX   Delta X   Delta X   Delta X     New X
                                 (Linear)    (Quad)   (Total)
    R1        2.11193  -0.01174   0.00000  -0.10378  -0.08302   2.02890
    R2        2.09817  -0.00676   0.00000  -0.06362  -0.05089   2.04728
    R3        3.12876  -0.01342   0.00000  -0.13635  -0.10908   3.01969
    R4        2.67932   0.00064   0.00000   0.02060   0.01648   2.69580
    R5        2.09535   0.00798   0.00000   0.01559   0.01247   2.10782
    R6        2.09748   0.00776   0.00000   0.01761   0.01409   2.11157
    R7        3.06654  -0.01441   0.00000  -0.12389  -0.09911   2.96743
    R8        2.09528  -0.00820   0.00000  -0.06613  -0.05291   2.04238
    R9        2.09719  -0.00762   0.00000  -0.06339  -0.05071   2.04647
   R10        2.72964  -0.01668   0.00000  -0.09378  -0.07503   2.65461
   R11        1.83890  -0.00272   0.00000  -0.03452  -0.02762   1.81128
   R12        1.84299  -0.00620   0.00000  -0.04316  -0.03453   1.80846
    A1        1.86960   0.00626   0.00000   0.04146   0.03209   1.90169
    A2        1.99356  -0.01747   0.00000  -0.14939  -0.11797   1.87559
    A3        1.92000  -0.00115   0.00000  -0.02548  -0.01595   1.90405
    A4        1.89197  -0.00277   0.00000   0.02145   0.01628   1.90825
    A5        1.95280  -0.00498   0.00000  -0.07580  -0.06419   1.88861
    A6        1.83753   0.01955   0.00000   0.18269   0.14688   1.98441
    A7        1.41427   0.01746   0.00000   0.17500   0.14648   1.56075
    A8        1.43420   0.01485   0.00000   0.15937   0.13411   1.56831
    A9        2.59089   0.07116   0.00000   0.66186   0.52288   3.11377
   A10        2.11396  -0.01134   0.00000  -0.06273  -0.07231   2.04164
   A11        1.42944   0.01738   0.00000   0.16121   0.13533   1.56476
   A12        1.47031   0.01270   0.00000   0.10466   0.09002   1.56034
   A13        1.90759   0.00203   0.00000   0.04982   0.03800   1.94559
   A14        1.84802   0.00931   0.00000   0.11355   0.08958   1.93760
   A15        1.95717  -0.01893   0.00000  -0.16766  -0.13290   1.82427
   A16        1.88017  -0.00104   0.00000  -0.02023  -0.01925   1.86092
   A17        1.92679   0.00642   0.00000   0.03312   0.02679   1.95357
   A18        1.94097   0.00287   0.00000  -0.00039   0.00286   1.94384
   A19        1.84159   0.00775   0.00000   0.07042   0.05634   1.89792
   A20        1.85934  -0.00353   0.00000   0.01085   0.00868   1.86802
    D1        0.83296  -0.00736   0.00000  -0.06279  -0.04527   0.78769
    D2       -1.32002   0.01336   0.00000   0.09442   0.06602  -1.25401
    D3       -0.17974   0.00374   0.00000   0.01602   0.01268  -0.16706
    D4        2.91569  -0.01246   0.00000  -0.08996  -0.06641   2.84928
    D5        0.76270   0.00826   0.00000   0.06725   0.04487   0.80758
    D6        1.90299  -0.00136   0.00000  -0.01116  -0.00846   1.89452
    D7       -1.27520  -0.00911   0.00000  -0.06896  -0.04611  -1.32131
    D8        2.85500   0.01160   0.00000   0.08825   0.06517   2.92018
    D9       -2.28790   0.00199   0.00000   0.00985   0.01184  -2.27606
   D10        1.16617   0.00399   0.00000   0.01729   0.01337   1.17954
   D11       -0.90974   0.00008   0.00000   0.03057   0.02260  -0.88714
   D12       -2.96129  -0.00567   0.00000  -0.06464  -0.04940  -3.01069
   D13        1.91389  -0.00251   0.00000  -0.03810  -0.03000   1.88389
   D14       -2.34844   0.00217   0.00000   0.02226   0.02110  -2.32734
   D15       -0.22864   0.00072   0.00000  -0.00195  -0.00103  -0.22967
   D16        0.90482   0.00806   0.00000   0.03265   0.02436   0.92918
   D17        2.92567   0.01273   0.00000   0.09301   0.07547   3.00114
   D18       -1.23771   0.01128   0.00000   0.06879   0.05333  -1.18438
   D19        3.04492  -0.01027   0.00000  -0.09049  -0.07398   2.97093
   D20       -1.21741  -0.00560   0.00000  -0.03013  -0.02288  -1.24029
   D21        0.90239  -0.00705   0.00000  -0.05435  -0.04502   0.85737
   D22       -3.04781  -0.00250   0.00000  -0.01835  -0.01536  -3.06316
   D23        1.10375   0.00347   0.00000   0.01052   0.00801   1.11176
   D24       -0.98226  -0.00129   0.00000   0.01437   0.01258  -0.96968
         Item               Value     Threshold  Converged?
 Maximum Force            0.071156     0.000015     NO 
 RMS     Force            0.013345     0.000010     NO 
 Maximum Displacement     0.822869     0.000060     NO 
 RMS     Displacement     0.226283     0.000040     NO 
 Predicted change in Energy=-2.231925D-01
 GradGradGradGradGradGradGradGradGradGradGradGradGradGradGradGradGradGrad

                          Input orientation:                          
 ---------------------------------------------------------------------
 Center     Atomic      Atomic             Coordinates (Angstroms)
 Number     Number       Type             X           Y           Z
 ---------------------------------------------------------------------
      1          6           0       -1.632390   -0.027449    0.017606
      2          1           0       -1.956766   -1.039984   -0.131642
      3          1           0       -1.987279    0.317402    0.981365
      4          6           0       -0.034452   -0.030096    0.012250
      5          1           0       -0.049761   -0.692384   -0.885124
      6          1           0       -0.034707   -0.530265    1.011453
      7          6           0        1.535156   -0.076372    0.007851
      8          1           0        1.936506    0.202661   -0.956069
      9          1           0        1.946259    0.620155    0.728002
     10          8           0       -2.207771    0.800467   -0.991628
     11          1           0       -3.155033    0.843309   -0.851771
     12          8           0        1.849373   -1.403972    0.342653
     13          1           0        2.801842   -1.455611    0.419966
 ---------------------------------------------------------------------
                    Distance matrix (angstroms):
                    1          2          3          4          5
     1  C    0.000000
     2  H    1.073649   0.000000
     3  H    1.083374   1.755623   0.000000
     4  C    1.597949   2.176206   2.207594   0.000000
     5  H    1.939530   2.079719   2.873574   1.115410   0.000000
     6  H    1.947601   2.293642   2.128845   1.117396   1.903553
     7  C    3.167940   3.625125   3.675641   1.570297   1.920635
     8  H    3.706483   4.169103   4.377546   2.208279   2.179769
     9  H    3.705507   4.327662   3.953299   2.204165   2.882538
    10  O    1.426556   2.046910   2.043201   2.533954   2.626206
    11  H    1.957671   2.345468   2.236205   3.353713   3.464416
    12  O    3.758077   3.852809   4.253349   2.354888   2.370760
    13  H    4.675891   4.808468   5.137550   3.200451   3.227601
                    6          7          8          9         10
     6  H    0.000000
     7  C    1.917734   0.000000
     8  H    2.879931   1.080779   0.000000
     9  H    2.308253   1.082945   1.735077   0.000000
    10  O    3.241202   3.972067   4.187323   4.499512   0.000000
    11  H    3.885195   4.856196   5.132745   5.344965   0.958488
    12  O    2.181837   1.404759   2.067739   2.062758   4.806275
    13  H    3.041731   1.917454   2.322099   2.266211   5.672628
                   11         12         13
    11  H    0.000000
    12  O    5.614356   0.000000
    13  H    6.510506   0.956996   0.000000
 Stoichiometry    C3H8O2
 Framework group  C1[X(C3H8O2)]
 Deg. of freedom    33
 Full point group                 C1      NOp   1
 Largest Abelian subgroup         C1      NOp   1
 Largest concise Abelian subgroup C1      NOp   1
                         Standard orientation:                         
 ---------------------------------------------------------------------
 Center     Atomic      Atomic             Coordinates (Angstroms)
 Number     Number       Type             X           Y           Z
 ---------------------------------------------------------------------
      1          6           0        1.446127    0.522907    0.158265
      2          1           0        1.453564    1.340944   -0.537065
      3          1           0        1.700627    0.895754    1.143107
      4          6           0       -0.037206   -0.070798    0.184365
      5          1           0       -0.061794   -0.028201   -0.929960
      6          1           0       -0.387737    0.836620    0.734179
      7          6           0       -1.508309   -0.620055    0.186346
      8          1           0       -1.607310   -1.488333   -0.449559
      9          1           0       -1.806301   -0.928696    1.180686
     10          8           0        2.437330   -0.427344   -0.228516
     11          1           0        3.303589   -0.035342   -0.107567
     12          8           0       -2.286825    0.456331   -0.270440
     13          1           0       -3.202350    0.183030   -0.216032
 ---------------------------------------------------------------------
 Rotational constants (GHZ):     17.8560973      1.8616881      1.7783791
 Standard basis: 6-31G(d,p) (6D, 7F)
 There are   115 symmetry adapted cartesian basis functions of A   symmetry.
 There are   115 symmetry adapted basis functions of A   symmetry.
   115 basis functions,   196 primitive gaussians,   115 cartesian basis functions
    21 alpha electrons       21 beta electrons
       nuclear repulsion energy       181.2276202768 Hartrees.
 NAtoms=   13 NActive=   13 NUniq=   13 SFac= 1.00D+00 NAtFMM=   60 NAOKFM=F Big=F
 Integral buffers will be    131072 words long.
 Raffenetti 2 integral format.
 Two-electron integral symmetry is turned on.
 One-electron integrals computed using PRISM.
 NBasis=   115 RedAO= T EigKep=  2.69D-03  NBF=   115
 NBsUse=   115 1.00D-06 EigRej= -1.00D+00 NBFU=   115
 Initial guess from the checkpoint file:  "/scratch/users/apinto/lixo/Gau-1054409.chk"
 B after Tr=     0.000000    0.000000    0.000000
         Rot=    0.995671    0.092906   -0.000727   -0.002667 Ang=  10.67 deg.
 ExpMin= 1.61D-01 ExpMax= 5.48D+03 ExpMxC= 8.25D+02 IAcc=1 IRadAn=         1 AccDes= 0.00D+00
 Harris functional with IExCor=  402 and IRadAn=       1 diagonalized for initial guess.
 HarFok:  IExCor=  402 AccDes= 0.00D+00 IRadAn=         1 IDoV= 1 UseB2=F ITyADJ=14
 ICtDFT=  3500011 ScaDFX=  1.000000  1.000000  1.000000  1.000000
 FoFCou: FMM=F IPFlag=           0 FMFlag=      100000 FMFlg1=           0
         NFxFlg=           0 DoJE=T BraDBF=F KetDBF=T FulRan=T
         wScrn=  0.000000 ICntrl=     500 IOpCl=  0 I1Cent=   200000004 NGrid=           0
         NMat0=    1 NMatS0=      1 NMatT0=    0 NMatD0=    1 NMtDS0=    0 NMtDT0=    0
 Petite list used in FoFCou.
 Keep R1 ints in memory in canonical form, NReq=23243465.
 Requested convergence on RMS density matrix=1.00D-08 within 128 cycles.
 Requested convergence on MAX density matrix=1.00D-06.
 Requested convergence on             energy=1.00D-06.
 No special actions if energy rises.
 Integral accuracy reduced to 1.0D-05 until final iterations.
 Initial convergence to 1.0D-05 achieved.  Increase integral accuracy.
 SCF Done:  E(RB3LYP) =  -269.442773522     A.U. after   13 cycles
            NFock= 13  Conv=0.40D-08     -V/T= 2.0083
 Calling FoFJK, ICntrl=      2127 FMM=F ISym2X=0 I1Cent= 0 IOpClX= 0 NMat=1 NMatS=1 NMatT=0.
 ***** Axes restored to original set *****
 -------------------------------------------------------------------
 Center     Atomic                   Forces (Hartrees/Bohr)
 Number     Number              X              Y              Z
 -------------------------------------------------------------------
      1        6           0.001453070    0.075893549   -0.005998766
      2        1           0.005963138   -0.016449735    0.000634736
      3        1          -0.002662435    0.000901756    0.012194986
      4        6          -0.014266927   -0.071997137   -0.004377802
      5        1           0.002422997   -0.021162428    0.018620545
      6        1          -0.003844907   -0.023547774   -0.015072608
      7        6          -0.001258042    0.057194844    0.000548381
      8        1           0.002701715    0.001953311   -0.011880217
      9        1           0.006922075    0.005883771    0.009864669
     10        8           0.011629194   -0.000039600   -0.006118158
     11        1          -0.007541281   -0.001034686    0.001971799
     12        8          -0.011770920   -0.007614190   -0.000726320
     13        1           0.010252325    0.000018317    0.000338755
 -------------------------------------------------------------------
 Cartesian Forces:  Max     0.075893549 RMS     0.021126194

 GradGradGradGradGradGradGradGradGradGradGradGradGradGradGradGradGradGrad
 Berny optimization.
 Using GEDIIS/GDIIS optimizer.
 FormGI is forming the generalized inverse of G from B-inverse, IUseBI=4.
 Internal  Forces:  Max     0.124786991 RMS     0.019889984
 Search for a local minimum.
 Step number   4 out of a maximum of   66
 All quantities printed in internal units (Hartrees-Bohrs-Radians)
 Mixed Optimization -- RFO/linear search
 Update second derivatives using D2CorX and points    3    4
 DE= -8.87D-02 DEPred=-2.23D-01 R= 3.97D-01
 Trust test= 3.97D-01 RLast= 7.10D-01 DXMaxT set to 8.49D-01
 ITU=  0  1  1  0
 Use linear search instead of GDIIS.
     Eigenvalues ---   -0.25669   0.00216   0.00238   0.00243   0.01260
     Eigenvalues ---    0.01295   0.01610   0.03658   0.04801   0.05557
     Eigenvalues ---    0.05880   0.06170   0.11073   0.12656   0.13457
     Eigenvalues ---    0.14332   0.15647   0.16004   0.16021   0.16690
     Eigenvalues ---    0.21912   0.25514   0.27957   0.32151   0.34684
     Eigenvalues ---    0.37228   0.37230   0.37230   0.37248   0.40311
     Eigenvalues ---    0.40936   0.54421   0.55474
 RFO step:  Lambda=-3.15640343D-01 EMin=-2.56691924D-01
 Skip linear search -- no minimum in search direction.
 Maximum step size (   0.849) exceeded in Quadratic search.
    -- Step size scaled by   0.840
 Iteration  1 RMS(Cart)=  0.02048463 RMS(Int)=  1.01987237
 Iteration  2 RMS(Cart)=  0.00412855 RMS(Int)=  1.01022596
 Iteration  3 RMS(Cart)=  0.00382335 RMS(Int)=  0.11276808
 New curvilinear step failed, DQL= 7.68D+00 SP=-5.39D-01.
 ITry= 1 IFail=1 DXMaxC= 7.71D-02 DCOld= 1.00D+10 DXMaxT= 8.49D-01 DXLimC= 3.00D+00 Rises=F
 Iteration  1 RMS(Cart)=  0.01949064 RMS(Int)=  1.01122556
 Iteration  2 RMS(Cart)=  0.00355838 RMS(Int)=  0.09728199
 Iteration  3 RMS(Cart)=  0.00250399 RMS(Int)=  1.01917718
 Iteration  4 RMS(Cart)=  0.00326074 RMS(Int)=  1.00881641
 Iteration  5 RMS(Cart)=  0.00303924 RMS(Int)=  0.09518404
 Iteration  6 RMS(Cart)=  0.00183021 RMS(Int)=  1.02223310
 Iteration  7 RMS(Cart)=  0.00278845 RMS(Int)=  1.00570535
 Iteration  8 RMS(Cart)=  0.00261425 RMS(Int)=  0.09660775
 Iteration  9 RMS(Cart)=  0.00412600 RMS(Int)=  1.00798664
 Iteration 10 RMS(Cart)=  0.00239756 RMS(Int)=  1.00158813
 Iteration 11 RMS(Cart)=  0.00223704 RMS(Int)=  0.99356466
 Iteration 12 RMS(Cart)=  0.00209456 RMS(Int)=  0.96574852
 Iteration 13 RMS(Cart)=  0.00131015 RMS(Int)=  0.11302485
 Iteration 14 RMS(Cart)=  0.01029062 RMS(Int)=  0.96637189
 Iteration 15 RMS(Cart)=  0.00192680 RMS(Int)=  0.96114731
 Iteration 16 RMS(Cart)=  0.00178438 RMS(Int)=  0.95594764
 Iteration 17 RMS(Cart)=  0.00166486 RMS(Int)=  0.95072220
 Iteration 18 RMS(Cart)=  0.00156293 RMS(Int)=  0.94541021
 Iteration 19 RMS(Cart)=  0.00147541 RMS(Int)=  0.93992184
 Iteration 20 RMS(Cart)=  0.00139961 RMS(Int)=  0.93408406
 Iteration 21 RMS(Cart)=  0.00133429 RMS(Int)=  0.92745443
 Iteration 22 RMS(Cart)=  0.00127910 RMS(Int)=  0.91796775
 Iteration 23 RMS(Cart)=  0.00123818 RMS(Int)=  0.13281427
 Iteration 24 RMS(Cart)=  0.00954190 RMS(Int)=  0.93479595
 Iteration 25 RMS(Cart)=  0.00126576 RMS(Int)=  0.92962505
 Iteration 26 RMS(Cart)=  0.00121102 RMS(Int)=  0.92446313
 Iteration 27 RMS(Cart)=  0.00116614 RMS(Int)=  0.91925698
 Iteration 28 RMS(Cart)=  0.00113004 RMS(Int)=  0.91393880
 Iteration 29 RMS(Cart)=  0.00110077 RMS(Int)=  0.90839998
 Iteration 30 RMS(Cart)=  0.00107739 RMS(Int)=  0.90241619
 Iteration 31 RMS(Cart)=  0.00105827 RMS(Int)=  0.89533461
 Iteration 32 RMS(Cart)=  0.00104698 RMS(Int)=  0.88247150
 Iteration 33 RMS(Cart)=  0.00105895 RMS(Int)=  0.17185064
 Iteration 34 RMS(Cart)=  0.00873860 RMS(Int)=  0.88582303
 Iteration 35 RMS(Cart)=  0.00121086 RMS(Int)=  0.88065135
 Iteration 36 RMS(Cart)=  0.00118845 RMS(Int)=  0.87539756
 Iteration 37 RMS(Cart)=  0.00117079 RMS(Int)=  0.86997380
 Iteration 38 RMS(Cart)=  0.00115727 RMS(Int)=  0.86421766
 Iteration 39 RMS(Cart)=  0.00114763 RMS(Int)=  0.85772527
 Iteration 40 RMS(Cart)=  0.00114276 RMS(Int)=  0.84874309
 Iteration 41 RMS(Cart)=  0.00115147 RMS(Int)=  0.17812896
 Iteration 42 RMS(Cart)=  0.00858034 RMS(Int)=  0.87864559
 Iteration 43 RMS(Cart)=  0.00122757 RMS(Int)=  0.87348006
 Iteration 44 RMS(Cart)=  0.00120664 RMS(Int)=  0.86823778
 Iteration 45 RMS(Cart)=  0.00119030 RMS(Int)=  0.86283407
 Iteration 46 RMS(Cart)=  0.00117745 RMS(Int)=  0.85711599
 Iteration 47 RMS(Cart)=  0.00116837 RMS(Int)=  0.85071352
 Iteration 48 RMS(Cart)=  0.00116385 RMS(Int)=  0.84212646
 Iteration 49 RMS(Cart)=  0.00117041 RMS(Int)=  0.12943135
 Iteration 50 RMS(Cart)=  0.00926351 RMS(Int)=  0.93889150
 Iteration 51 RMS(Cart)=  0.00109338 RMS(Int)=  0.93371967
 Iteration 52 RMS(Cart)=  0.00106268 RMS(Int)=  0.92857330
 Iteration 53 RMS(Cart)=  0.00103855 RMS(Int)=  0.92339963
 Iteration 54 RMS(Cart)=  0.00101905 RMS(Int)=  0.91813753
 Iteration 55 RMS(Cart)=  0.00100315 RMS(Int)=  0.91269643
 Iteration 56 RMS(Cart)=  0.00099033 RMS(Int)=  0.90690522
 Iteration 57 RMS(Cart)=  0.00098062 RMS(Int)=  0.90032559
 Iteration 58 RMS(Cart)=  0.00097493 RMS(Int)=  0.89091750
 Iteration 59 RMS(Cart)=  0.00098144 RMS(Int)=  0.15339483
 Iteration 60 RMS(Cart)=  0.00892617 RMS(Int)=  0.90789314
 Iteration 61 RMS(Cart)=  0.00116034 RMS(Int)=  0.90274671
 Iteration 62 RMS(Cart)=  0.00113578 RMS(Int)=  0.89757681
[...]
   D10        1.10017   0.00000   0.00001   0.00000   0.00001   1.10018
   D11       -0.98133   0.00000   0.00001   0.00000   0.00001  -0.98132
   D12       -3.08283   0.00000   0.00001   0.00000   0.00001  -3.08282
   D13       -0.99531   0.00000  -0.00001   0.00000  -0.00001  -0.99532
   D14        1.05930   0.00000  -0.00001   0.00000   0.00000   1.05930
   D15        3.10597   0.00000  -0.00001   0.00000  -0.00001   3.10596
   D16        1.11951   0.00000   0.00000   0.00000   0.00000   1.11951
   D17       -3.10906   0.00000   0.00000   0.00000   0.00000  -3.10906
   D18       -1.06239   0.00000   0.00000   0.00000   0.00000  -1.06240
   D19       -3.12294   0.00000  -0.00001   0.00000   0.00000  -3.12294
   D20       -1.06832   0.00000  -0.00001   0.00000   0.00000  -1.06833
   D21        0.97834   0.00000  -0.00001   0.00000   0.00000   0.97834
   D22        1.17227   0.00000   0.00000  -0.00001   0.00000   1.17227
   D23       -0.99165   0.00000   0.00000  -0.00001   0.00000  -0.99165
   D24       -3.02132   0.00000   0.00000  -0.00001   0.00000  -3.02132
         Item               Value     Threshold  Converged?
 Maximum Force            0.000001     0.000015     YES
 RMS     Force            0.000000     0.000010     YES
 Maximum Displacement     0.000014     0.000060     YES
 RMS     Displacement     0.000004     0.000040     YES
 Predicted change in Energy=-5.313176D-12
 Optimization completed.
    -- Stationary point found.
                           ----------------------------
                           !   Optimized Parameters   !
                           ! (Angstroms and Degrees)  !
 --------------------------                            --------------------------
 ! Name  Definition              Value          Derivative Info.                !
 --------------------------------------------------------------------------------
 ! R1    R(1,2)                  1.1013         -DE/DX =    0.0                 !
 ! R2    R(1,3)                  1.1028         -DE/DX =    0.0                 !
 ! R3    R(1,4)                  1.5232         -DE/DX =    0.0                 !
 ! R4    R(1,10)                 1.4258         -DE/DX =    0.0                 !
 ! R5    R(4,5)                  1.0985         -DE/DX =    0.0                 !
 ! R6    R(4,6)                  1.0964         -DE/DX =    0.0                 !
 ! R7    R(4,7)                  1.5306         -DE/DX =    0.0                 !
 ! R8    R(7,8)                  1.0982         -DE/DX =    0.0                 !
 ! R9    R(7,9)                  1.0961         -DE/DX =    0.0                 !
 ! R10   R(7,12)                 1.4243         -DE/DX =    0.0                 !
 ! R11   R(10,11)                0.9652         -DE/DX =    0.0                 !
 ! R12   R(12,13)                0.9662         -DE/DX =    0.0                 !
 ! A1    A(2,1,3)              107.2156         -DE/DX =    0.0                 !
 ! A2    A(2,1,4)              109.5964         -DE/DX =    0.0                 !
 ! A3    A(2,1,10)             111.1331         -DE/DX =    0.0                 !
 ! A4    A(3,1,4)              109.6971         -DE/DX =    0.0                 !
 ! A5    A(3,1,10)             111.053          -DE/DX =    0.0                 !
 ! A6    A(4,1,10)             108.1386         -DE/DX =    0.0                 !
 ! A7    A(1,4,5)              108.3786         -DE/DX =    0.0                 !
 ! A8    A(1,4,6)              109.237          -DE/DX =    0.0                 !
 ! A9    A(1,4,7)              113.3731         -DE/DX =    0.0                 !
 ! A10   A(5,4,6)              107.143          -DE/DX =    0.0                 !
 ! A11   A(5,4,7)              109.5149         -DE/DX =    0.0                 !
 ! A12   A(6,4,7)              109.0067         -DE/DX =    0.0                 !
 ! A13   A(4,7,8)              109.8129         -DE/DX =    0.0                 !
 ! A14   A(4,7,9)              109.7912         -DE/DX =    0.0                 !
 ! A15   A(4,7,12)             112.4512         -DE/DX =    0.0                 !
 ! A16   A(8,7,9)              107.2782         -DE/DX =    0.0                 !
 ! A17   A(8,7,12)             111.6818         -DE/DX =    0.0                 !
 ! A18   A(9,7,12)             105.6093         -DE/DX =    0.0                 !
 ! A19   A(1,10,11)            108.1524         -DE/DX =    0.0                 !
 ! A20   A(7,12,13)            107.3736         -DE/DX =    0.0                 !
 ! D1    D(2,1,4,5)             62.9977         -DE/DX =    0.0                 !
 ! D2    D(2,1,4,6)            -53.4198         -DE/DX =    0.0                 !
 ! D3    D(2,1,4,7)           -175.1951         -DE/DX =    0.0                 !
 ! D4    D(3,1,4,5)           -179.5415         -DE/DX =    0.0                 !
 ! D5    D(3,1,4,6)             64.041          -DE/DX =    0.0                 !
 ! D6    D(3,1,4,7)            -57.7343         -DE/DX =    0.0                 !
 ! D7    D(10,1,4,5)           -58.2906         -DE/DX =    0.0                 !
 ! D8    D(10,1,4,6)          -174.708          -DE/DX =    0.0                 !
 ! D9    D(10,1,4,7)            63.5166         -DE/DX =    0.0                 !
 ! D10   D(2,1,10,11)           63.0351         -DE/DX =    0.0                 !
 ! D11   D(3,1,10,11)          -56.2261         -DE/DX =    0.0                 !
 ! D12   D(4,1,10,11)         -176.6332         -DE/DX =    0.0                 !
 ! D13   D(1,4,7,8)            -57.0273         -DE/DX =    0.0                 !
 ! D14   D(1,4,7,9)             60.6935         -DE/DX =    0.0                 !
 ! D15   D(1,4,7,12)           177.959          -DE/DX =    0.0                 !
 ! D16   D(5,4,7,8)             64.1431         -DE/DX =    0.0                 !
 ! D17   D(5,4,7,9)           -178.1361         -DE/DX =    0.0                 !
 ! D18   D(5,4,7,12)           -60.8707         -DE/DX =    0.0                 !
 ! D19   D(6,4,7,8)           -178.9312         -DE/DX =    0.0                 !
 ! D20   D(6,4,7,9)            -61.2105         -DE/DX =    0.0                 !
 ! D21   D(6,4,7,12)            56.055          -DE/DX =    0.0                 !
 ! D22   D(4,7,12,13)           67.1664         -DE/DX =    0.0                 !
 ! D23   D(8,7,12,13)          -56.8172         -DE/DX =    0.0                 !
 ! D24   D(9,7,12,13)         -173.1088         -DE/DX =    0.0                 !
 --------------------------------------------------------------------------------
 GradGradGradGradGradGradGradGradGradGradGradGradGradGradGradGradGradGrad

                          Input orientation:                          
 ---------------------------------------------------------------------
 Center     Atomic      Atomic             Coordinates (Angstroms)
 Number     Number       Type             X           Y           Z
 ---------------------------------------------------------------------
      1          6           0       -1.395635    0.024370    0.183530
      2          1           0       -2.261143   -0.617122    0.411891
      3          1           0       -1.360835    0.812192    0.954464
      4          6           0       -0.117992   -0.803288    0.237221
      5          1           0       -0.171852   -1.574521   -0.543229
      6          1           0       -0.064138   -1.322434    1.201406
      7          6           0        1.152739    0.028479    0.047267
      8          1           0        1.104148    0.569744   -0.907049
      9          1           0        1.228017    0.778223    0.843317
     10          8           0       -1.504269    0.588946   -1.121191
     11          1           0       -2.285079    1.156117   -1.139370
     12          8           0        2.336781   -0.756738    0.147149
     13          1           0        2.350233   -1.356110   -0.610495
 ---------------------------------------------------------------------
                    Distance matrix (angstroms):
                    1          2          3          4          5
     1  C    0.000000
     2  H    1.101255   0.000000
     3  H    1.102820   1.774226   0.000000
     4  C    1.523244   2.158301   2.160757   0.000000
     5  H    2.140625   2.488776   3.058294   1.098546   0.000000
     6  H    2.150078   2.438776   2.509788   1.096388   1.766041
     7  C    2.552018   3.493471   2.784828   1.530580   2.161674
     8  H    2.781314   3.804396   3.098411   2.165223   2.521589
     9  H    2.808409   3.782506   2.591460   2.163393   3.068802
    10  O    1.425778   2.092318   2.092547   2.388589   2.605756
    11  H    1.955001   2.356132   2.314443   3.229634   3.503926
    12  O    3.813447   4.607654   4.097031   2.456865   2.727385
    13  H    4.070347   4.780812   4.574129   2.667652   2.532418
                    6          7          8          9         10
     6  H    0.000000
     7  C    2.153553   0.000000
     8  H    3.064442   1.098201   0.000000
     9  H    2.492118   1.096120   1.767084   0.000000
    10  O    3.334937   2.956198   2.617262   3.370534   0.000000
    11  H    4.068787   3.807659   3.447414   4.051628   0.965235
    12  O    2.682513   1.424253   2.095297   2.017452   4.263005
    13  H    3.018825   1.945181   2.312917   2.815727   4.347555
                   11         12         13
    11  H    0.000000
    12  O    5.164855   0.000000
    13  H    5.298784   0.966153   0.000000
 Stoichiometry    C3H8O2
 Framework group  C1[X(C3H8O2)]
 Deg. of freedom    33
 Full point group                 C1      NOp   1
 Largest Abelian subgroup         C1      NOp   1
 Largest concise Abelian subgroup C1      NOp   1
                         Standard orientation:                         
 ---------------------------------------------------------------------
 Center     Atomic      Atomic             Coordinates (Angstroms)
 Number     Number       Type             X           Y           Z
 ---------------------------------------------------------------------
      1          6           0        1.398173    0.527201    0.224414
      2          1           0        2.014407    1.352943   -0.164389
      3          1           0        1.443175    0.576623    1.325207
      4          6           0       -0.042246    0.702646   -0.238927
      5          1           0       -0.063193    0.641680   -1.335581
      6          1           0       -0.390465    1.705335    0.035708
      7          6           0       -1.000113   -0.336181    0.349295
      8          1           0       -0.652739   -1.347228    0.097977
      9          1           0       -1.007762   -0.256929    1.442519
     10          8           0        1.867182   -0.732377   -0.251337
     11          1           0        2.761126   -0.867581    0.086688
     12          8           0       -2.348139   -0.126141   -0.059611
     13          1           0       -2.391780   -0.298698   -1.009228
 ---------------------------------------------------------------------
 Rotational constants (GHZ):     13.2389111      2.3926465      2.2127511

 **********************************************************************

            Population analysis using the SCF density.

 **********************************************************************

 Orbital symmetries:
       Occupied  (A) (A) (A) (A) (A) (A) (A) (A) (A) (A) (A) (A)
                 (A) (A) (A) (A) (A) (A) (A) (A) (A)
       Virtual   (A) (A) (A) (A) (A) (A) (A) (A) (A) (A) (A) (A)
                 (A) (A) (A) (A) (A) (A) (A) (A) (A) (A) (A) (A)
                 (A) (A) (A) (A) (A) (A) (A) (A) (A) (A) (A) (A)
                 (A) (A) (A) (A) (A) (A) (A) (A) (A) (A) (A) (A)
                 (A) (A) (A) (A) (A) (A) (A) (A) (A) (A) (A) (A)
                 (A) (A) (A) (A) (A) (A) (A) (A) (A) (A) (A) (A)
                 (A) (A) (A) (A) (A) (A) (A) (A) (A) (A) (A) (A)
                 (A) (A) (A) (A) (A) (A) (A) (A) (A) (A)
 The electronic state is 1-A.
 Alpha  occ. eigenvalues --  -19.14538 -19.13481 -10.23445 -10.22071 -10.18013
 Alpha  occ. eigenvalues --   -1.01698  -1.00582  -0.76971  -0.66354  -0.58971
 Alpha  occ. eigenvalues --   -0.52341  -0.48951  -0.46183  -0.42864  -0.40519
 Alpha  occ. eigenvalues --   -0.37160  -0.36847  -0.33210  -0.31447  -0.27434
 Alpha  occ. eigenvalues --   -0.25399
 Alpha virt. eigenvalues --    0.07025   0.08345   0.11586   0.13600   0.16315
 Alpha virt. eigenvalues --    0.16815   0.18048   0.19150   0.21587   0.23626
 Alpha virt. eigenvalues --    0.24963   0.26674   0.53045   0.53747   0.55105
 Alpha virt. eigenvalues --    0.56396   0.57640   0.66538   0.66918   0.71616
 Alpha virt. eigenvalues --    0.73187   0.77702   0.79223   0.83042   0.83454
 Alpha virt. eigenvalues --    0.85937   0.88461   0.90817   0.91698   0.95205
 Alpha virt. eigenvalues --    0.98419   1.01491   1.02062   1.05057   1.10625
 Alpha virt. eigenvalues --    1.20808   1.25719   1.33528   1.35385   1.45317
 Alpha virt. eigenvalues --    1.51662   1.55745   1.57305   1.60058   1.63796
 Alpha virt. eigenvalues --    1.67841   1.72762   1.79730   1.83696   1.86481
 Alpha virt. eigenvalues --    1.89942   1.94277   1.95557   2.02630   2.04517
 Alpha virt. eigenvalues --    2.09568   2.10886   2.13712   2.20715   2.24327
 Alpha virt. eigenvalues --    2.27470   2.32660   2.36338   2.40266   2.42429
 Alpha virt. eigenvalues --    2.44806   2.50101   2.58946   2.61822   2.64641
 Alpha virt. eigenvalues --    2.65990   2.70046   2.70994   2.72979   2.78711
 Alpha virt. eigenvalues --    2.82105   2.88355   2.89374   2.91753   2.96229
 Alpha virt. eigenvalues --    3.02204   3.21757   3.28469   3.33192   3.35402
 Alpha virt. eigenvalues --    3.44136   3.46283   3.50397   3.56894   3.89299
 Alpha virt. eigenvalues --    3.94038   4.31246   4.50105   4.66354
          Condensed to atoms (all electrons):
               1          2          3          4          5          6
     1  C    4.768572   0.366213   0.369669   0.318054  -0.030998  -0.027703
     2  H    0.366213   0.687860  -0.059555  -0.031671  -0.007624  -0.001350
     3  H    0.369669  -0.059555   0.693140  -0.040659   0.007098  -0.000590
     4  C    0.318054  -0.031671  -0.040659   5.070304   0.368908   0.365119
     5  H   -0.030998  -0.007624   0.007098   0.368908   0.634969  -0.035226
     6  H   -0.027703  -0.001350  -0.000590   0.365119  -0.035226   0.625006
     7  C   -0.027824   0.005011  -0.011786   0.352947  -0.040329  -0.034626
     8  H   -0.000707   0.000131  -0.000117  -0.055908  -0.006355   0.006584
     9  H   -0.001382  -0.000201   0.006015  -0.045350   0.006044  -0.007404
    10  O    0.239165  -0.037723  -0.039149  -0.057123   0.001887   0.002960
    11  H   -0.022942  -0.003766  -0.005127   0.006241  -0.000085  -0.000288
    12  O    0.003317  -0.000066   0.000017  -0.042286  -0.000968   0.003493
    13  H   -0.000056   0.000002   0.000021  -0.004574   0.005338  -0.000836
               7          8          9         10         11         12
     1  C   -0.027824  -0.000707  -0.001382   0.239165  -0.022942   0.003317
     2  H    0.005011   0.000131  -0.000201  -0.037723  -0.003766  -0.000066
     3  H   -0.011786  -0.000117   0.006015  -0.039149  -0.005127   0.000017
     4  C    0.352947  -0.055908  -0.045350  -0.057123   0.006241  -0.042286
     5  H   -0.040329  -0.006355   0.006044   0.001887  -0.000085  -0.000968
     6  H   -0.034626   0.006584  -0.007404   0.002960  -0.000288   0.003493
     7  C    4.717196   0.379925   0.384956  -0.001037   0.000321   0.248982
     8  H    0.379925   0.646614  -0.044075   0.009361  -0.000352  -0.032608
     9  H    0.384956  -0.044075   0.633324  -0.000259  -0.000032  -0.038260
    10  O   -0.001037   0.009361  -0.000259   8.139242   0.280568   0.000017
    11  H    0.000321  -0.000352  -0.000032   0.280568   0.437876   0.000001
    12  O    0.248982  -0.032608  -0.038260   0.000017   0.000001   8.117495
    13  H   -0.034828  -0.007383   0.007975   0.000007  -0.000001   0.284916
              13
     1  C   -0.000056
     2  H    0.000002
     3  H    0.000021
     4  C   -0.004574
     5  H    0.005338
     6  H   -0.000836
     7  C   -0.034828
     8  H   -0.007383
     9  H    0.007975
    10  O    0.000007
    11  H   -0.000001
    12  O    0.284916
    13  H    0.448248
 Mulliken charges:
               1
     1  C    0.046622
     2  H    0.082737
     3  H    0.081023
     4  C   -0.204002
     5  H    0.097339
     6  H    0.104860
     7  C    0.061092
     8  H    0.104889
     9  H    0.098650
    10  O   -0.537917
    11  H    0.307587
    12  O   -0.544051
    13  H    0.301170
 Sum of Mulliken charges =   0.00000
 Mulliken charges with hydrogens summed into heavy atoms:
               1
     1  C    0.210382
     4  C   -0.001803
     7  C    0.264631
    10  O   -0.230330
    12  O   -0.242881
 Electronic spatial extent (au):  <R**2>=            558.6438
 Charge=              0.0000 electrons
 Dipole moment (field-independent basis, Debye):
    X=              2.1898    Y=              0.4475    Z=             -0.1799  Tot=              2.2423
 Quadrupole moment (field-independent basis, Debye-Ang):
   XX=            -30.5822   YY=            -31.6496   ZZ=            -29.4290
   XY=              0.8230   XZ=              5.2492   YZ=             -0.1043
 Traceless Quadrupole moment (field-independent basis, Debye-Ang):
   XX=             -0.0286   YY=             -1.0960   ZZ=              1.1246
   XY=              0.8230   XZ=              5.2492   YZ=             -0.1043
 Octapole moment (field-independent basis, Debye-Ang**2):
  XXX=             34.3540  YYY=             -3.4167  ZZZ=             -2.7440  XYY=              0.6121
  XXY=             -6.7612  XXZ=             -5.1756  XZZ=             -6.2444  YZZ=             -1.6046
  YYZ=             -0.2385  XYZ=             -2.9918
 Hexadecapole moment (field-independent basis, Debye-Ang**3):
 XXXX=           -447.6824 YYYY=           -108.2507 ZZZZ=            -62.2970 XXXY=            -22.1494
 XXXZ=             33.6083 YYYX=             -6.2707 YYYZ=              1.3459 ZZZX=              6.1679
 ZZZY=              1.1983 XXYY=            -95.3966 XXZZ=            -82.5684 YYZZ=            -30.2818
 XXYZ=              0.0395 YYXZ=              1.3122 ZZXY=              0.4052
 N-N= 1.875699553076D+02 E-N=-1.005900152109D+03  KE= 2.671937996854D+02
 1\1\GINC-EXADE5\FOpt\RB3LYP\6-31G(d,p)\C3H8O2\APINTO\10-Nov-2025\0\\# 
 opt=tight b3lyp/6-31g(d,p)\\Title Card Required\\0,1\C,-1.3956350798,0
 .0243698071,0.1835304656\H,-2.2611427669,-0.6171215602,0.4118910205\H,
 -1.3608351992,0.8121921042,0.9544635555\C,-0.1179916145,-0.8032875123,
 0.2372205301\H,-0.1718518405,-1.574521009,-0.5432291067\H,-0.064137602
 1,-1.3224339158,1.2014057099\C,1.1527393055,0.0284791989,0.0472666566\
 H,1.1041477809,0.5697438598,-0.9070486274\H,1.2280170615,0.7782231081,
 0.8433170644\O,-1.5042687941,0.5889458334,-1.1211905601\H,-2.285078541
 3,1.1561173636,-1.1393698561\O,2.3367805567,-0.7567381467,0.147149238\
 H,2.3502328738,-1.3561099809,-0.6104950902\\Version=ES64L-G09RevD.01\S
 tate=1-A\HF=-269.5707622\RMSD=4.148e-09\RMSF=2.547e-06\Dipole=-0.87747
 59,0.0636637,-0.0649216\Quadrupole=-0.3567522,1.4982539,-1.1415017,-2.
 391824,-2.7151699,1.1672539\PG=C01 [X(C3H8O2)]\\@


 WE'RE IN THE POSITION OF A VISITOR FROM ANOTHER
 DIMENSION WHO COMES TO EARTH AND SEES A CHESS MATCH.
 ASSUMING HE KNOWS IT'S A GAME, HE'S GOT TWO PROBLEMS:
 FIRST, FIGURE OUT THE RULES, AND SECOND, FIGURE OUT HOW TO WIN.
 NINETY PERCENT OF SCIENCE (INCLUDING VIRTUALLY ALL OF CHEMISRY)
 IS IN THAT SECOND CATEGORY.  THEY'RE TRYING TO APPLY
 THE LAWS THAT ARE ALREADY KNOWN.

                     -- SHELDON GLASHOW, 1979
 Job cpu time:       0 days  0 hours  4 minutes  6.5 seconds.
 File lengths (MBytes):  RWF=      9 Int=      0 D2E=      0 Chk=      2 Scr=      1
 Normal termination of Gaussian 09 at Mon Nov 10 14:01:26 2025.
