 Entering Gaussian System, Link 0=g09
 Input=propanediol_scan.com
 Output=propanediol_scan.log
 Initial command:
 /opt/programs/gaussian/g09/d_pgi133/l1.exe "/scratch/users/apinto/lixo/Gau-1242869.inp" -scrdir="/scratch/users/apinto/lixo/"
 Entering Link 1 = /opt/programs/gaussian/g09/d_pgi133/l1.exe PID=   1242875.
  
 Copyright (c) 1988,1990,1992,1993,1995,1998,2003,2009,2013,
            Gaussian, Inc.  All Rights Reserved.
  
 This is part of the Gaussian(R) 09 program.  It is based on
 the Gaussian(R) 03 system (copyright 2003, Gaussian, Inc.),
 the Gaussian(R) 98 system (copyright 1998, Gaussian, Inc.),
 the Gaussian(R) 94 system (copyright 1995, Gaussian, Inc.),
 the Gaussian 92(TM) system (copyright 1992, Gaussian, Inc.),
 the Gaussian 90(TM) system (copyright 1990, Gaussian, Inc.),
 the Gaussian 88(TM) system (copyright 1988, Gaussian, Inc.),
 the Gaussian 86(TM) system (copyright 1986, Carnegie Mellon
 University), and the Gaussian 82(TM) system (copyright 1983,
 Carnegie Mellon University). Gaussian is a federally registered
 trademark of Gaussian, Inc.
  
 This software contains proprietary and confidential information,
 including trade secrets, belonging to Gaussian, Inc.
  
 This software is provided under written license and may be
 used, copied, transmitted, or stored only in accord with that
 written license.
  
 The following legend is applicable only to US Government
 contracts under FAR:
  
                    RESTRICTED RIGHTS LEGEND
  
 Use, reproduction and disclosure by the US Government is
 subject to restrictions as set forth in subparagraphs (a)
 and (c) of the Commercial Computer Software - Restricted
 Rights clause in FAR 52.227-19.
  
 Gaussian, Inc.
 340 Quinnipiac St., Bldg. 40, Wallingford CT 06492
  
  
 ---------------------------------------------------------------
 Warning -- This program may not be used in any manner that
 competes with the business of Gaussian, Inc. or will provide
 assistance to any competitor of Gaussian, Inc.  The licensee
 of this program is prohibited from giving any competitor of
 Gaussian, Inc. access to this program.  By using this program,
 the user acknowledges that Gaussian, Inc. is engaged in the
 business of creating and licensing software in the field of
 computational chemistry and represents and warrants to the
 licensee that it is not a competitor of Gaussian, Inc. and that
 it will not use this program in any manner prohibited above.
 ---------------------------------------------------------------
  

 Cite this work as:
 Gaussian 09, Revision D.01,
 M. J. Frisch, G. W. Trucks, H. B. Schlegel, G. E. Scuseria, 
 M. A. Robb, J. R. Cheeseman, G. Scalmani, V. Barone, B. Mennucci, 
 G. A. Petersson, H. Nakatsuji, M. Caricato, X. Li, H. P. Hratchian, 
 A. F. Izmaylov, J. Bloino, G. Zheng, J. L. Sonnenberg, M. Hada, 
 M. Ehara, K. Toyota, R. Fukuda, J. Hasegawa, M. Ishida, T. Nakajima, 
 Y. Honda, O. Kitao, H. Nakai, T. Vreven, J. A. Montgomery, Jr., 
 J. E. Peralta, F. Ogliaro, M. Bearpark, J. J. Heyd, E. Brothers, 
 K. N. Kudin, V. N. Staroverov, T. Keith, R. Kobayashi, J. Normand, 
 K. Raghavachari, A. Rendell, J. C. Burant, S. S. Iyengar, J. Tomasi, 
 M. Cossi, N. Rega, J. M. Millam, M. Klene, J. E. Knox, J. B. Cross, 
 V. Bakken, C. Adamo, J. Jaramillo, R. Gomperts, R. E. Stratmann, 
 O. Yazyev, A. J. Austin, R. Cammi, C. Pomelli, J. W. Ochterski, 
 R. L. Martin, K. Morokuma, V. G. Zakrzewski, G. A. Voth, 
 P. Salvador, J. J. Dannenberg, S. Dapprich, A. D. Daniels, 
 O. Farkas, J. B. Foresman, J. V. Ortiz, J. Cioslowski, 
 and D. J. Fox, Gaussian, Inc., Wallingford CT, 2013.
 
 ******************************************
 Gaussian 09:  ES64L-G09RevD.01 24-Apr-2013
                10-Nov-2025 
 ******************************************
 ---------------------------------------------
 # opt=modredundant b3lyp/6-31g(d,p) scf=tight
 ---------------------------------------------
 1/14=-1,18=120,19=15,26=3,38=1/1,3;
 2/9=110,12=2,17=6,18=5,40=1/2;
 3/5=1,6=6,7=101,11=2,16=1,25=1,30=1,71=1,74=-5/1,2,3;
 4//1;
 5/5=2,32=2,38=5/2;
 6/7=2,8=2,9=2,10=2,28=1/1;
 7//1,2,3,16;
 1/14=-1,18=20,19=15,26=3/3(2);
 2/9=110/2;
 99//99;
 2/9=110/2;
 3/5=1,6=6,7=101,11=2,16=1,25=1,30=1,71=1,74=-5/1,2,3;
 4/5=5,16=3,69=1/1;
 5/5=2,32=2,38=5/2;
 7//1,2,3,16;
 1/14=-1,18=20,19=15,26=3/3(-5);
 2/9=110/2;
 6/7=2,8=2,9=2,10=2,19=2,28=1/1;
 99/9=1/99;
 -------------------
 Title Card Required
 -------------------
 Symbolic Z-matrix:
 Charge =  0 Multiplicity = 1
 C                     1.39817   0.5272    0.22441 
 H                     2.01441   1.35294  -0.16439 
 H                     1.44318   0.57662   1.32521 
 C                    -0.04225   0.70265  -0.23893 
 H                    -0.06319   0.64168  -1.33558 
 H                    -0.39047   1.70534   0.03571 
 C                    -1.00011  -0.33618   0.3493 
 H                    -0.65274  -1.34723   0.09798 
 H                    -1.00776  -0.25693   1.44252 
 O                     1.86718  -0.73238  -0.25134 
 H                     2.76113  -0.86758   0.08669 
 O                    -2.34814  -0.12614  -0.05961 
 H                    -2.39178  -0.2987   -1.00923 
 
 The following ModRedundant input section has been read:
 D      10       1       4       7 S  60 6.0000                                
 D       1       4       7      12 F                                           
 

 GradGradGradGradGradGradGradGradGradGradGradGradGradGradGradGradGradGrad
 Berny optimization.
 Initialization pass.
                           ----------------------------
                           !    Initial Parameters    !
                           ! (Angstroms and Degrees)  !
 --------------------------                            --------------------------
 ! Name  Definition              Value          Derivative Info.                !
 --------------------------------------------------------------------------------
 ! R1    R(1,2)                  1.1013         estimate D2E/DX2                !
 ! R2    R(1,3)                  1.1028         estimate D2E/DX2                !
 ! R3    R(1,4)                  1.5232         estimate D2E/DX2                !
 ! R4    R(1,10)                 1.4258         estimate D2E/DX2                !
 ! R5    R(4,5)                  1.0985         estimate D2E/DX2                !
 ! R6    R(4,6)                  1.0964         estimate D2E/DX2                !
 ! R7    R(4,7)                  1.5306         estimate D2E/DX2                !
 ! R8    R(7,8)                  1.0982         estimate D2E/DX2                !
 ! R9    R(7,9)                  1.0961         estimate D2E/DX2                !
 ! R10   R(7,12)                 1.4243         estimate D2E/DX2                !
 ! R11   R(10,11)                0.9652         estimate D2E/DX2                !
 ! R12   R(12,13)                0.9662         estimate D2E/DX2                !
 ! A1    A(2,1,3)              107.2156         estimate D2E/DX2                !
 ! A2    A(2,1,4)              109.5964         estimate D2E/DX2                !
 ! A3    A(2,1,10)             111.1331         estimate D2E/DX2                !
 ! A4    A(3,1,4)              109.6971         estimate D2E/DX2                !
 ! A5    A(3,1,10)             111.053          estimate D2E/DX2                !
 ! A6    A(4,1,10)             108.1386         estimate D2E/DX2                !
 ! A7    A(1,4,5)              108.3786         estimate D2E/DX2                !
 ! A8    A(1,4,6)              109.237          estimate D2E/DX2                !
 ! A9    A(1,4,7)              113.3731         estimate D2E/DX2                !
 ! A10   A(5,4,6)              107.143          estimate D2E/DX2                !
 ! A11   A(5,4,7)              109.5149         estimate D2E/DX2                !
 ! A12   A(6,4,7)              109.0068         estimate D2E/DX2                !
 ! A13   A(4,7,8)              109.8128         estimate D2E/DX2                !
 ! A14   A(4,7,9)              109.7911         estimate D2E/DX2                !
 ! A15   A(4,7,12)             112.4512         estimate D2E/DX2                !
 ! A16   A(8,7,9)              107.2782         estimate D2E/DX2                !
 ! A17   A(8,7,12)             111.6818         estimate D2E/DX2                !
 ! A18   A(9,7,12)             105.6093         estimate D2E/DX2                !
 ! A19   A(1,10,11)            108.1524         estimate D2E/DX2                !
 ! A20   A(7,12,13)            107.3736         estimate D2E/DX2                !
 ! D1    D(2,1,4,5)             62.9977         estimate D2E/DX2                !
 ! D2    D(2,1,4,6)            -53.4197         estimate D2E/DX2                !
 ! D3    D(2,1,4,7)           -175.1951         estimate D2E/DX2                !
 ! D4    D(3,1,4,5)           -179.5415         estimate D2E/DX2                !
 ! D5    D(3,1,4,6)             64.0411         estimate D2E/DX2                !
 ! D6    D(3,1,4,7)            -57.7343         estimate D2E/DX2                !
 ! D7    D(10,1,4,5)           -58.2905         estimate D2E/DX2                !
 ! D8    D(10,1,4,6)          -174.708          estimate D2E/DX2                !
 ! D9    D(10,1,4,7)            63.5166         Scan                            !
 ! D10   D(2,1,10,11)           63.0351         estimate D2E/DX2                !
 ! D11   D(3,1,10,11)          -56.2261         estimate D2E/DX2                !
 ! D12   D(4,1,10,11)         -176.6332         estimate D2E/DX2                !
 ! D13   D(1,4,7,8)            -57.0273         estimate D2E/DX2                !
 ! D14   D(1,4,7,9)             60.6935         estimate D2E/DX2                !
 ! D15   D(1,4,7,12)           177.959          Frozen                          !
 ! D16   D(5,4,7,8)             64.1431         estimate D2E/DX2                !
 ! D17   D(5,4,7,9)           -178.1362         estimate D2E/DX2                !
 ! D18   D(5,4,7,12)           -60.8707         estimate D2E/DX2                !
 ! D19   D(6,4,7,8)           -178.9312         estimate D2E/DX2                !
 ! D20   D(6,4,7,9)            -61.2105         estimate D2E/DX2                !
 ! D21   D(6,4,7,12)            56.055          estimate D2E/DX2                !
 ! D22   D(4,7,12,13)           67.1664         estimate D2E/DX2                !
 ! D23   D(8,7,12,13)          -56.8172         estimate D2E/DX2                !
 ! D24   D(9,7,12,13)         -173.1089         estimate D2E/DX2                !
 --------------------------------------------------------------------------------
 Trust Radius=3.00D-01 FncErr=1.00D-07 GrdErr=1.00D-06
 Number of optimizations in scan=  61
 Number of steps in this run=     66 maximum allowed number of steps=    100.
 GradGradGradGradGradGradGradGradGradGradGradGradGradGradGradGradGradGrad

                          Input orientation:                          
 ---------------------------------------------------------------------
 Center     Atomic      Atomic             Coordinates (Angstroms)
 Number     Number       Type             X           Y           Z
 ---------------------------------------------------------------------
      1          6           0        1.398173    0.527201    0.224414
      2          1           0        2.014407    1.352943   -0.164389
      3          1           0        1.443175    0.576623    1.325207
      4          6           0       -0.042246    0.702646   -0.238927
      5          1           0       -0.063193    0.641680   -1.335581
      6          1           0       -0.390465    1.705335    0.035708
      7          6           0       -1.000113   -0.336181    0.349295
      8          1           0       -0.652739   -1.347228    0.097977
      9          1           0       -1.007762   -0.256929    1.442519
     10          8           0        1.867182   -0.732377   -0.251337
     11          1           0        2.761126   -0.867581    0.086688
     12          8           0       -2.348139   -0.126141   -0.059611
     13          1           0       -2.391780   -0.298698   -1.009228
 ---------------------------------------------------------------------
                    Distance matrix (angstroms):
                    1          2          3          4          5
     1  C    0.000000
     2  H    1.101255   0.000000
     3  H    1.102820   1.774225   0.000000
     4  C    1.523244   2.158301   2.160757   0.000000
     5  H    2.140626   2.488776   3.058295   1.098547   0.000000
     6  H    2.150078   2.438776   2.509788   1.096388   1.766041
     7  C    2.552019   3.493471   2.784829   1.530580   2.161675
     8  H    2.781315   3.804396   3.098411   2.165223   2.521588
     9  H    2.808409   3.782505   2.591460   2.163392   3.068802
    10  O    1.425779   2.092318   2.092547   2.388590   2.605756
    11  H    1.955000   2.356132   2.314444   3.229633   3.503926
    12  O    3.813447   4.607654   4.097031   2.456865   2.727385
    13  H    4.070347   4.780811   4.574129   2.667651   2.532417
                    6          7          8          9         10
     6  H    0.000000
     7  C    2.153554   0.000000
     8  H    3.064442   1.098201   0.000000
     9  H    2.492118   1.096120   1.767084   0.000000
    10  O    3.334937   2.956199   2.617263   3.370534   0.000000
    11  H    4.068786   3.807659   3.447414   4.051628   0.965234
    12  O    2.682513   1.424252   2.095297   2.017451   4.263005
    13  H    3.018824   1.945180   2.312916   2.815726   4.347555
                   11         12         13
    11  H    0.000000
    12  O    5.164855   0.000000
    13  H    5.298783   0.966154   0.000000
 Stoichiometry    C3H8O2
 Framework group  C1[X(C3H8O2)]
 Deg. of freedom    33
 Full point group                 C1      NOp   1
 Largest Abelian subgroup         C1      NOp   1
 Largest concise Abelian subgroup C1      NOp   1
                         Standard orientation:                         
 ---------------------------------------------------------------------
 Center     Atomic      Atomic             Coordinates (Angstroms)
 Number     Number       Type             X           Y           Z
 ---------------------------------------------------------------------
      1          6           0        1.398173    0.527201    0.224414
      2          1           0        2.014407    1.352943   -0.164389
      3          1           0        1.443175    0.576623    1.325207
      4          6           0       -0.042246    0.702646   -0.238927
      5          1           0       -0.063193    0.641680   -1.335581
      6          1           0       -0.390465    1.705335    0.035708
      7          6           0       -1.000113   -0.336181    0.349295
      8          1           0       -0.652739   -1.347228    0.097977
      9          1           0       -1.007762   -0.256929    1.442519
     10          8           0        1.867182   -0.732377   -0.251337
     11          1           0        2.761126   -0.867581    0.086688
     12          8           0       -2.348139   -0.126141   -0.059611
     13          1           0       -2.391780   -0.298698   -1.009228
 ---------------------------------------------------------------------
 Rotational constants (GHZ):     13.2389103      2.3926464      2.2127510
 Standard basis: 6-31G(d,p) (6D, 7F)
 There are   115 symmetry adapted cartesian basis functions of A   symmetry.
 There are   115 symmetry adapted basis functions of A   symmetry.
   115 basis functions,   196 primitive gaussians,   115 cartesian basis functions
    21 alpha electrons       21 beta electrons
       nuclear repulsion energy       187.5699554808 Hartrees.
 NAtoms=   13 NActive=   13 NUniq=   13 SFac= 1.00D+00 NAtFMM=   60 NAOKFM=F Big=F
 Integral buffers will be    131072 words long.
 Raffenetti 2 integral format.
 Two-electron integral symmetry is turned on.
 One-electron integrals computed using PRISM.
 NBasis=   115 RedAO= T EigKep=  4.06D-03  NBF=   115
 NBsUse=   115 1.00D-06 EigRej= -1.00D+00 NBFU=   115
 ExpMin= 1.61D-01 ExpMax= 5.48D+03 ExpMxC= 8.25D+02 IAcc=1 IRadAn=         1 AccDes= 0.00D+00
 Harris functional with IExCor=  402 and IRadAn=       1 diagonalized for initial guess.
 HarFok:  IExCor=  402 AccDes= 0.00D+00 IRadAn=         1 IDoV= 1 UseB2=F ITyADJ=14
 ICtDFT=  3500011 ScaDFX=  1.000000  1.000000  1.000000  1.000000
 FoFCou: FMM=F IPFlag=           0 FMFlag=      100000 FMFlg1=           0
         NFxFlg=           0 DoJE=T BraDBF=F KetDBF=T FulRan=T
         wScrn=  0.000000 ICntrl=     500 IOpCl=  0 I1Cent=   200000004 NGrid=           0
         NMat0=    1 NMatS0=      1 NMatT0=    0 NMatD0=    1 NMtDS0=    0 NMtDT0=    0
 Petite list used in FoFCou.
 Keep R1 ints in memory in canonical form, NReq=23243465.
 Requested convergence on RMS density matrix=1.00D-08 within 128 cycles.
 Requested convergence on MAX density matrix=1.00D-06.
 Requested convergence on             energy=1.00D-06.
 No special actions if energy rises.
 Integral accuracy reduced to 1.0D-05 until final iterations.
 Initial convergence to 1.0D-05 achieved.  Increase integral accuracy.
 SCF Done:  E(RB3LYP) =  -269.570762173     A.U. after   12 cycles
            NFock= 12  Conv=0.38D-08     -V/T= 2.0089

 **********************************************************************

            Population analysis using the SCF density.

 **********************************************************************

 Orbital symmetries:
       Occupied  (A) (A) (A) (A) (A) (A) (A) (A) (A) (A) (A) (A)
                 (A) (A) (A) (A) (A) (A) (A) (A) (A)
       Virtual   (A) (A) (A) (A) (A) (A) (A) (A) (A) (A) (A) (A)
                 (A) (A) (A) (A) (A) (A) (A) (A) (A) (A) (A) (A)
                 (A) (A) (A) (A) (A) (A) (A) (A) (A) (A) (A) (A)
                 (A) (A) (A) (A) (A) (A) (A) (A) (A) (A) (A) (A)
                 (A) (A) (A) (A) (A) (A) (A) (A) (A) (A) (A) (A)
                 (A) (A) (A) (A) (A) (A) (A) (A) (A) (A) (A) (A)
                 (A) (A) (A) (A) (A) (A) (A) (A) (A) (A) (A) (A)
                 (A) (A) (A) (A) (A) (A) (A) (A) (A) (A)
 The electronic state is 1-A.
 Alpha  occ. eigenvalues --  -19.14538 -19.13481 -10.23445 -10.22071 -10.18013
 Alpha  occ. eigenvalues --   -1.01698  -1.00582  -0.76971  -0.66354  -0.58971
 Alpha  occ. eigenvalues --   -0.52341  -0.48951  -0.46183  -0.42864  -0.40519
 Alpha  occ. eigenvalues --   -0.37160  -0.36847  -0.33210  -0.31447  -0.27434
 Alpha  occ. eigenvalues --   -0.25399
 Alpha virt. eigenvalues --    0.07025   0.08345   0.11586   0.13600   0.16315
 Alpha virt. eigenvalues --    0.16815   0.18048   0.19150   0.21587   0.23626
 Alpha virt. eigenvalues --    0.24963   0.26674   0.53045   0.53747   0.55105
 Alpha virt. eigenvalues --    0.56396   0.57640   0.66538   0.66918   0.71616
 Alpha virt. eigenvalues --    0.73187   0.77702   0.79223   0.83042   0.83454
 Alpha virt. eigenvalues --    0.85937   0.88461   0.90817   0.91698   0.95205
 Alpha virt. eigenvalues --    0.98419   1.01491   1.02062   1.05057   1.10625
 Alpha virt. eigenvalues --    1.20808   1.25719   1.33528   1.35385   1.45317
 Alpha virt. eigenvalues --    1.51662   1.55745   1.57305   1.60058   1.63796
 Alpha virt. eigenvalues --    1.67841   1.72762   1.79730   1.83696   1.86481
 Alpha virt. eigenvalues --    1.89942   1.94277   1.95557   2.02630   2.04517
 Alpha virt. eigenvalues --    2.09568   2.10886   2.13712   2.20715   2.24327
 Alpha virt. eigenvalues --    2.27470   2.32660   2.36338   2.40266   2.42429
 Alpha virt. eigenvalues --    2.44806   2.50101   2.58946   2.61822   2.64641
 Alpha virt. eigenvalues --    2.65990   2.70046   2.70994   2.72979   2.78711
 Alpha virt. eigenvalues --    2.82105   2.88355   2.89374   2.91753   2.96229
 Alpha virt. eigenvalues --    3.02204   3.21757   3.28469   3.33192   3.35402
 Alpha virt. eigenvalues --    3.44136   3.46283   3.50397   3.56894   3.89299
 Alpha virt. eigenvalues --    3.94038   4.31246   4.50105   4.66354
          Condensed to atoms (all electrons):
               1          2          3          4          5          6
     1  C    4.768572   0.366213   0.369669   0.318054  -0.030998  -0.027703
     2  H    0.366213   0.687859  -0.059555  -0.031671  -0.007624  -0.001350
     3  H    0.369669  -0.059555   0.693140  -0.040659   0.007098  -0.000590
     4  C    0.318054  -0.031671  -0.040659   5.070304   0.368908   0.365119
     5  H   -0.030998  -0.007624   0.007098   0.368908   0.634970  -0.035226
     6  H   -0.027703  -0.001350  -0.000590   0.365119  -0.035226   0.625006
     7  C   -0.027824   0.005011  -0.011786   0.352947  -0.040329  -0.034626
     8  H   -0.000707   0.000131  -0.000117  -0.055908  -0.006355   0.006584
     9  H   -0.001382  -0.000201   0.006015  -0.045350   0.006044  -0.007404
    10  O    0.239165  -0.037723  -0.039149  -0.057122   0.001887   0.002960
    11  H   -0.022942  -0.003766  -0.005127   0.006241  -0.000085  -0.000288
    12  O    0.003317  -0.000066   0.000017  -0.042286  -0.000968   0.003493
    13  H   -0.000056   0.000002   0.000021  -0.004574   0.005338  -0.000836
               7          8          9         10         11         12
     1  C   -0.027824  -0.000707  -0.001382   0.239165  -0.022942   0.003317
     2  H    0.005011   0.000131  -0.000201  -0.037723  -0.003766  -0.000066
     3  H   -0.011786  -0.000117   0.006015  -0.039149  -0.005127   0.000017
     4  C    0.352947  -0.055908  -0.045350  -0.057122   0.006241  -0.042286
     5  H   -0.040329  -0.006355   0.006044   0.001887  -0.000085  -0.000968
     6  H   -0.034626   0.006584  -0.007404   0.002960  -0.000288   0.003493
     7  C    4.717195   0.379925   0.384956  -0.001037   0.000321   0.248982
     8  H    0.379925   0.646614  -0.044075   0.009361  -0.000352  -0.032608
     9  H    0.384956  -0.044075   0.633324  -0.000259  -0.000032  -0.038260
    10  O   -0.001037   0.009361  -0.000259   8.139242   0.280568   0.000017
    11  H    0.000321  -0.000352  -0.000032   0.280568   0.437875   0.000001
    12  O    0.248982  -0.032608  -0.038260   0.000017   0.000001   8.117495
    13  H   -0.034828  -0.007383   0.007975   0.000007  -0.000001   0.284916
              13
     1  C   -0.000056
     2  H    0.000002
     3  H    0.000021
     4  C   -0.004574
     5  H    0.005338
     6  H   -0.000836
     7  C   -0.034828
     8  H   -0.007383
     9  H    0.007975
    10  O    0.000007
    11  H   -0.000001
    12  O    0.284916
    13  H    0.448248
 Mulliken charges:
               1
     1  C    0.046622
     2  H    0.082738
     3  H    0.081023
     4  C   -0.204002
     5  H    0.097339
     6  H    0.104860
     7  C    0.061092
     8  H    0.104889
     9  H    0.098650
    10  O   -0.537917
    11  H    0.307587
    12  O   -0.544051
    13  H    0.301170
 Sum of Mulliken charges =   0.00000
 Mulliken charges with hydrogens summed into heavy atoms:
               1
     1  C    0.210382
     4  C   -0.001803
     7  C    0.264632
    10  O   -0.230330
    12  O   -0.242881
 Electronic spatial extent (au):  <R**2>=            558.6439
 Charge=              0.0000 electrons
 Dipole moment (field-independent basis, Debye):
    X=              2.1898    Y=              0.4475    Z=             -0.1799  Tot=              2.2423
 Quadrupole moment (field-independent basis, Debye-Ang):
   XX=            -30.5822   YY=            -31.6496   ZZ=            -29.4290
   XY=              0.8230   XZ=              5.2492   YZ=             -0.1043
 Traceless Quadrupole moment (field-independent basis, Debye-Ang):
   XX=             -0.0286   YY=             -1.0960   ZZ=              1.1246
   XY=              0.8230   XZ=              5.2492   YZ=             -0.1043
 Octapole moment (field-independent basis, Debye-Ang**2):
  XXX=             34.3540  YYY=             -3.4167  ZZZ=             -2.7440  XYY=              0.6121
  XXY=             -6.7612  XXZ=             -5.1756  XZZ=             -6.2444  YZZ=             -1.6046
  YYZ=             -0.2385  XYZ=             -2.9918
 Hexadecapole moment (field-independent basis, Debye-Ang**3):
 XXXX=           -447.6824 YYYY=           -108.2507 ZZZZ=            -62.2970 XXXY=            -22.1494
 XXXZ=             33.6083 YYYX=             -6.2707 YYYZ=              1.3459 ZZZX=              6.1679
 ZZZY=              1.1983 XXYY=            -95.3966 XXZZ=            -82.5684 YYZZ=            -30.2818
 XXYZ=              0.0395 YYXZ=              1.3122 ZZXY=              0.4052
 N-N= 1.875699554808D+02 E-N=-1.005900155508D+03  KE= 2.671938017186D+02
 Calling FoFJK, ICntrl=      2127 FMM=F ISym2X=0 I1Cent= 0 IOpClX= 0 NMat=1 NMatS=1 NMatT=0.
 ***** Axes restored to original set *****
 -------------------------------------------------------------------
 Center     Atomic                   Forces (Hartrees/Bohr)
 Number     Number              X              Y              Z
 -------------------------------------------------------------------
      1        6           0.000000486   -0.000001082   -0.000001143
      2        1           0.000000909   -0.000001222   -0.000001549
      3        1           0.000003006   -0.000003838   -0.000002138
      4        6           0.000000131    0.000000009    0.000000959
      5        1          -0.000002374    0.000003136    0.000001743
      6        1           0.000001072    0.000000596    0.000004215
      7        6           0.000001556    0.000000579    0.000001613
      8        1          -0.000001289    0.000000493   -0.000001249
      9        1           0.000002509   -0.000001768    0.000001577
     10        8          -0.000001533   -0.000001213   -0.000005468
     11        1          -0.000000460   -0.000002421   -0.000007084
     12        8          -0.000001562    0.000002418    0.000004049
     13        1          -0.000002451    0.000004313    0.000004474
 -------------------------------------------------------------------
 Cartesian Forces:  Max     0.000007084 RMS     0.000002555

 GradGradGradGradGradGradGradGradGradGradGradGradGradGradGradGradGradGrad
 Berny optimization.
 FormGI is forming the generalized inverse of G from B-inverse, IUseBI=4.
 Internal  Forces:  Max     0.000001145 RMS     0.000000205
 Search for a local minimum.
 Step number   1 out of a maximum of   66 on scan point     1 out of    61
 All quantities printed in internal units (Hartrees-Bohrs-Radians)
 Mixed Optimization -- En-DIIS/RFO-DIIS
 Second derivative matrix not updated -- first step.
 ITU=  0
     Eigenvalues ---    0.01351   0.01357   0.01371   0.02454   0.04476
     Eigenvalues ---    0.04868   0.05803   0.06010   0.08452   0.10606
     Eigenvalues ---    0.11065   0.11667   0.13515   0.13855   0.16000
     Eigenvalues ---    0.16000   0.21948   0.21956   0.22026   0.29370
     Eigenvalues ---    0.30056   0.33372   0.33544   0.33843   0.33882
     Eigenvalues ---    0.34085   0.34115   0.41602   0.41826   0.54171
     Eigenvalues ---    0.543631000.000001000.000001000.000001000.00000
     Eigenvalues --- 1000.000001000.000001000.000001000.000001000.00000
     Eigenvalues --- 1000.000001000.000001000.000001000.000001000.00000
     Eigenvalues --- 1000.000001000.000001000.000001000.000001000.00000
     Eigenvalues --- 1000.000001000.000001000.000001000.000001000.00000
     Eigenvalues --- 1000.00000
 RFO step:  Lambda= 0.00000000D+00 EMin= 1.35077617D-02
 Linear search not attempted -- first point.
 Iteration  1 RMS(Cart)=  0.00000156 RMS(Int)=  0.00000000
 Iteration  2 RMS(Cart)=  0.00000000 RMS(Int)=  0.00000000
 Iteration  1 RMS(Cart)=  0.00000000 RMS(Int)=  0.00000000
 Variable       Old X    -DE/DX   Delta X   Delta X   Delta X     New X
                                 (Linear)    (Quad)   (Total)
    R1        2.08107   0.00000   0.00000   0.00000   0.00000   2.08107
    R2        2.08403   0.00000   0.00000   0.00000   0.00000   2.08403
    R3        2.87851   0.00000   0.00000   0.00000   0.00000   2.87851
    R4        2.69433   0.00000   0.00000   0.00000   0.00000   2.69433
    R5        2.07595   0.00000   0.00000   0.00000   0.00000   2.07595
    R6        2.07187   0.00000   0.00000   0.00000   0.00000   2.07187
    R7        2.89238   0.00000   0.00000   0.00000   0.00000   2.89238
    R8        2.07530   0.00000   0.00000   0.00000   0.00000   2.07530
    R9        2.07137   0.00000   0.00000   0.00000   0.00000   2.07137
   R10        2.69145   0.00000   0.00000   0.00000   0.00000   2.69145
   R11        1.82403   0.00000   0.00000   0.00000   0.00000   1.82403
   R12        1.82577   0.00000   0.00000   0.00000   0.00000   1.82577
    A1        1.87127   0.00000   0.00000   0.00000   0.00000   1.87127
    A2        1.91282   0.00000   0.00000   0.00000   0.00000   1.91282
    A3        1.93964   0.00000   0.00000   0.00000   0.00000   1.93964
    A4        1.91457   0.00000   0.00000   0.00000   0.00000   1.91457
    A5        1.93824   0.00000   0.00000   0.00000   0.00000   1.93824
    A6        1.88737   0.00000   0.00000   0.00000   0.00000   1.88737
    A7        1.89156   0.00000   0.00000   0.00000   0.00000   1.89157
    A8        1.90655   0.00000   0.00000   0.00000   0.00000   1.90655
    A9        1.97873   0.00000   0.00000   0.00000   0.00000   1.97873
   A10        1.87000   0.00000   0.00000   0.00000   0.00000   1.87000
   A11        1.91139   0.00000   0.00000   0.00000   0.00000   1.91140
   A12        1.90253   0.00000   0.00000   0.00000   0.00000   1.90252
   A13        1.91660   0.00000   0.00000   0.00000   0.00000   1.91660
   A14        1.91622   0.00000   0.00000   0.00000   0.00000   1.91622
   A15        1.96264   0.00000   0.00000   0.00000   0.00000   1.96264
   A16        1.87236   0.00000   0.00000   0.00000   0.00000   1.87236
   A17        1.94921   0.00000   0.00000   0.00000   0.00000   1.94921
   A18        1.84323   0.00000   0.00000   0.00000   0.00000   1.84323
   A19        1.88762   0.00000   0.00000   0.00000   0.00000   1.88761
   A20        1.87402   0.00000   0.00000   0.00000   0.00000   1.87402
    D1        1.09952   0.00000   0.00000   0.00000   0.00000   1.09951
    D2       -0.93235   0.00000   0.00000   0.00000   0.00000  -0.93235
    D3       -3.05773   0.00000   0.00000   0.00000   0.00000  -3.05773
    D4       -3.13359   0.00000   0.00000   0.00000   0.00000  -3.13359
    D5        1.11773   0.00000   0.00000   0.00000   0.00000   1.11773
    D6       -1.00765   0.00000   0.00000   0.00000   0.00000  -1.00765
    D7       -1.01736   0.00000   0.00000   0.00000   0.00000  -1.01737
    D8       -3.04923   0.00000   0.00000   0.00000   0.00000  -3.04923
    D9        1.10857   0.00000   0.00000   0.00000   0.00000   1.10857
   D10        1.10017   0.00000   0.00000   0.00000   0.00000   1.10017
   D11       -0.98133   0.00000   0.00000   0.00000   0.00000  -0.98133
   D12       -3.08283   0.00000   0.00000   0.00000   0.00000  -3.08283
   D13       -0.99531   0.00000   0.00000   0.00000   0.00000  -0.99531
   D14        1.05930   0.00000   0.00000   0.00000   0.00000   1.05930
   D15        3.10597   0.00000   0.00000   0.00000   0.00000   3.10597
   D16        1.11951   0.00000   0.00000   0.00000   0.00000   1.11951
   D17       -3.10906   0.00000   0.00000   0.00000   0.00000  -3.10906
   D18       -1.06239   0.00000   0.00000   0.00000   0.00000  -1.06239
   D19       -3.12294   0.00000   0.00000   0.00000   0.00000  -3.12294
   D20       -1.06832   0.00000   0.00000   0.00000   0.00000  -1.06832
   D21        0.97834   0.00000   0.00000   0.00000   0.00000   0.97835
   D22        1.17227   0.00000   0.00000   0.00000   0.00000   1.17227
   D23       -0.99165   0.00000   0.00000   0.00000   0.00000  -0.99165
   D24       -3.02132   0.00000   0.00000   0.00000   0.00000  -3.02132
         Item               Value     Threshold  Converged?
 Maximum Force            0.000001     0.000450     YES
 RMS     Force            0.000000     0.000300     YES
 Maximum Displacement     0.000006     0.001800     YES
 RMS     Displacement     0.000002     0.001200     YES
 Predicted change in Energy=-4.770012D-12
 Optimization completed.
    -- Stationary point found.
                           ----------------------------
                           !   Optimized Parameters   !
                           ! (Angstroms and Degrees)  !
 --------------------------                            --------------------------
 ! Name  Definition              Value          Derivative Info.                !
 --------------------------------------------------------------------------------
 ! R1    R(1,2)                  1.1013         -DE/DX =    0.0                 !
 ! R2    R(1,3)                  1.1028         -DE/DX =    0.0                 !
 ! R3    R(1,4)                  1.5232         -DE/DX =    0.0                 !
 ! R4    R(1,10)                 1.4258         -DE/DX =    0.0                 !
 ! R5    R(4,5)                  1.0985         -DE/DX =    0.0                 !
 ! R6    R(4,6)                  1.0964         -DE/DX =    0.0                 !
 ! R7    R(4,7)                  1.5306         -DE/DX =    0.0                 !
 ! R8    R(7,8)                  1.0982         -DE/DX =    0.0                 !
 ! R9    R(7,9)                  1.0961         -DE/DX =    0.0                 !
 ! R10   R(7,12)                 1.4243         -DE/DX =    0.0                 !
 ! R11   R(10,11)                0.9652         -DE/DX =    0.0                 !
 ! R12   R(12,13)                0.9662         -DE/DX =    0.0                 !
 ! A1    A(2,1,3)              107.2156         -DE/DX =    0.0                 !
 ! A2    A(2,1,4)              109.5964         -DE/DX =    0.0                 !
 ! A3    A(2,1,10)             111.1331         -DE/DX =    0.0                 !
 ! A4    A(3,1,4)              109.6971         -DE/DX =    0.0                 !
 ! A5    A(3,1,10)             111.053          -DE/DX =    0.0                 !
 ! A6    A(4,1,10)             108.1386         -DE/DX =    0.0                 !
 ! A7    A(1,4,5)              108.3786         -DE/DX =    0.0                 !
 ! A8    A(1,4,6)              109.237          -DE/DX =    0.0                 !
 ! A9    A(1,4,7)              113.3731         -DE/DX =    0.0                 !
 ! A10   A(5,4,6)              107.143          -DE/DX =    0.0                 !
 ! A11   A(5,4,7)              109.5149         -DE/DX =    0.0                 !
 ! A12   A(6,4,7)              109.0068         -DE/DX =    0.0                 !
 ! A13   A(4,7,8)              109.8128         -DE/DX =    0.0                 !
 ! A14   A(4,7,9)              109.7911         -DE/DX =    0.0                 !
 ! A15   A(4,7,12)             112.4512         -DE/DX =    0.0                 !
 ! A16   A(8,7,9)              107.2782         -DE/DX =    0.0                 !
 ! A17   A(8,7,12)             111.6818         -DE/DX =    0.0                 !
 ! A18   A(9,7,12)             105.6093         -DE/DX =    0.0                 !
 ! A19   A(1,10,11)            108.1524         -DE/DX =    0.0                 !
 ! A20   A(7,12,13)            107.3736         -DE/DX =    0.0                 !
 ! D1    D(2,1,4,5)             62.9977         -DE/DX =    0.0                 !
 ! D2    D(2,1,4,6)            -53.4197         -DE/DX =    0.0                 !
 ! D3    D(2,1,4,7)           -175.1951         -DE/DX =    0.0                 !
 ! D4    D(3,1,4,5)           -179.5415         -DE/DX =    0.0                 !
 ! D5    D(3,1,4,6)             64.0411         -DE/DX =    0.0                 !
 ! D6    D(3,1,4,7)            -57.7343         -DE/DX =    0.0                 !
 ! D7    D(10,1,4,5)           -58.2905         -DE/DX =    0.0                 !
 ! D8    D(10,1,4,6)          -174.708          -DE/DX =    0.0                 !
 ! D9    D(10,1,4,7)            63.5166         -DE/DX =    0.0                 !
 ! D10   D(2,1,10,11)           63.0351         -DE/DX =    0.0                 !
 ! D11   D(3,1,10,11)          -56.2261         -DE/DX =    0.0                 !
 ! D12   D(4,1,10,11)         -176.6332         -DE/DX =    0.0                 !
 ! D13   D(1,4,7,8)            -57.0273         -DE/DX =    0.0                 !
 ! D14   D(1,4,7,9)             60.6935         -DE/DX =    0.0                 !
 ! D15   D(1,4,7,12)           177.959          -DE/DX =    0.0                 !
 ! D16   D(5,4,7,8)             64.1431         -DE/DX =    0.0                 !
 ! D17   D(5,4,7,9)           -178.1362         -DE/DX =    0.0                 !
 ! D18   D(5,4,7,12)           -60.8707         -DE/DX =    0.0                 !
 ! D19   D(6,4,7,8)           -178.9312         -DE/DX =    0.0                 !
 ! D20   D(6,4,7,9)            -61.2105         -DE/DX =    0.0                 !
 ! D21   D(6,4,7,12)            56.055          -DE/DX =    0.0                 !
 ! D22   D(4,7,12,13)           67.1664         -DE/DX =    0.0                 !
 ! D23   D(8,7,12,13)          -56.8172         -DE/DX =    0.0                 !
 ! D24   D(9,7,12,13)         -173.1089         -DE/DX =    0.0                 !
 --------------------------------------------------------------------------------
 Iteration  1 RMS(Cart)=  0.01271270 RMS(Int)=  0.01123089
 Iteration  2 RMS(Cart)=  0.00016960 RMS(Int)=  0.01123042
 Iteration  3 RMS(Cart)=  0.00000100 RMS(Int)=  0.01123042
 Iteration  4 RMS(Cart)=  0.00000003 RMS(Int)=  0.01123042
 Iteration  1 RMS(Cart)=  0.00819179 RMS(Int)=  0.00733412
 Iteration  2 RMS(Cart)=  0.00538057 RMS(Int)=  0.00810198
 Iteration  3 RMS(Cart)=  0.00359971 RMS(Int)=  0.00929414
 Iteration  4 RMS(Cart)=  0.00244674 RMS(Int)=  0.01029172
 Iteration  5 RMS(Cart)=  0.00168382 RMS(Int)=  0.01103020
 Iteration  6 RMS(Cart)=  0.00116930 RMS(Int)=  0.01155652
 Iteration  7 RMS(Cart)=  0.00081706 RMS(Int)=  0.01192649
 Iteration  8 RMS(Cart)=  0.00057325 RMS(Int)=  0.01218519
 Iteration  9 RMS(Cart)=  0.00040322 RMS(Int)=  0.01236577
 Iteration 10 RMS(Cart)=  0.00028405 RMS(Int)=  0.01249180
 Iteration 11 RMS(Cart)=  0.00020026 RMS(Int)=  0.01257978
 Iteration 12 RMS(Cart)=  0.00014125 RMS(Int)=  0.01264126
 Iteration 13 RMS(Cart)=  0.00009964 RMS(Int)=  0.01268425
 Iteration 14 RMS(Cart)=  0.00007029 RMS(Int)=  0.01271434
 Iteration 15 RMS(Cart)=  0.00004958 RMS(Int)=  0.01273542
 Iteration 16 RMS(Cart)=  0.00003496 RMS(Int)=  0.01275019
 Iteration 17 RMS(Cart)=  0.00002465 RMS(Int)=  0.01276056
 Iteration 18 RMS(Cart)=  0.00001738 RMS(Int)=  0.01276783
 Iteration 19 RMS(Cart)=  0.00001225 RMS(Int)=  0.01277294
 Iteration 20 RMS(Cart)=  0.00000864 RMS(Int)=  0.01277653
 Iteration 21 RMS(Cart)=  0.00000609 RMS(Int)=  0.01277906
 Iteration 22 RMS(Cart)=  0.00000429 RMS(Int)=  0.01278083
 Iteration 23 RMS(Cart)=  0.00000302 RMS(Int)=  0.01278208
 Iteration 24 RMS(Cart)=  0.00000213 RMS(Int)=  0.01278296
 Iteration 25 RMS(Cart)=  0.00000150 RMS(Int)=  0.01278358
 Iteration 26 RMS(Cart)=  0.00000106 RMS(Int)=  0.01278401
 Iteration 27 RMS(Cart)=  0.00000074 RMS(Int)=  0.01278432
 GradGradGradGradGradGradGradGradGradGradGradGradGradGradGradGradGradGrad

                          Input orientation:                          
 ---------------------------------------------------------------------
 Center     Atomic      Atomic             Coordinates (Angstroms)
 Number     Number       Type             X           Y           Z
 ---------------------------------------------------------------------
      1          6           0        1.393535    0.507255    0.243046
      2          1           0        2.007301    1.341340   -0.131628
      3          1           0        1.426920    0.546410    1.344675
      4          6           0       -0.037768    0.684310   -0.247229
      5          1           0       -0.027593    0.632597   -1.344552
      6          1           0       -0.402208    1.681508    0.026398
      7          6           0       -1.015716   -0.322204    0.363829
      8          1           0       -0.681288   -1.344683    0.142819
      9          1           0       -1.030518   -0.213157    1.454448
     10          8           0        1.900915   -0.710265   -0.298912
     11          1           0        2.797218   -0.837931    0.035792
     12          8           0       -2.355599   -0.111390   -0.070728
     13          1           0       -2.387574   -0.312499   -1.015223
 ---------------------------------------------------------------------
                    Distance matrix (angstroms):
                    1          2          3          4          5
     1  C    0.000000
     2  H    1.101266   0.000000
     3  H    1.102830   1.774324   0.000000
     4  C    1.523268   2.151129   2.167599   0.000000
     5  H    2.134428   2.472710   3.058591   1.098588   0.000000
     6  H    2.156502   2.438528   2.524284   1.096400   1.766367
     7  C    2.550898   3.485898   2.771826   1.530636   2.192395
     8  H    2.782914   3.810322   3.076562   2.164040   2.559145
     9  H    2.804019   3.763036   2.574489   2.164880   3.091207
    10  O    1.426011   2.061160   2.122565   2.388723   2.572117
    11  H    1.955199   2.324052   2.346761   3.230242   3.470931
    12  O    3.812766   4.598808   4.091884   2.456956   2.756040
    13  H    4.068419   4.778164   4.566970   2.665527   2.563430
                    6          7          8          9         10
     6  H    0.000000
     7  C    2.122526   0.000000
     8  H    3.041262   1.098249   0.000000
     9  H    2.454355   1.096157   1.767112   0.000000
    10  O    3.336282   3.016049   2.695438   3.451765   0.000000
    11  H    4.072344   3.861612   3.516853   4.129708   0.965238
    12  O    2.653235   1.424278   2.090438   2.022958   4.304489
    13  H    3.000453   1.945219   2.306053   2.819707   4.366058
                   11         12         13
    11  H    0.000000
    12  O    5.204875   0.000000
    13  H    5.316275   0.966198   0.000000
 Stoichiometry    C3H8O2
 Framework group  C1[X(C3H8O2)]
 Deg. of freedom    33
 Full point group                 C1      NOp   1
 Largest Abelian subgroup         C1      NOp   1
 Largest concise Abelian subgroup C1      NOp   1
                         Standard orientation:                         
 ---------------------------------------------------------------------
 Center     Atomic      Atomic             Coordinates (Angstroms)
 Number     Number       Type             X           Y           Z
 ---------------------------------------------------------------------
      1          6           0        1.387427    0.518820    0.239374
      2          1           0        2.000871    1.339767   -0.163763
      3          1           0        1.412855    0.601668    1.338793
      4          6           0       -0.040981    0.670853   -0.267463
      5          1           0       -0.022837    0.575795   -1.361780
      6          1           0       -0.410891    1.676696   -0.036079
      7          6           0       -1.019661   -0.314427    0.376164
      8          1           0       -0.680045   -1.343563    0.198146
      9          1           0       -1.042587   -0.162362    1.461480
     10          8           0        1.902958   -0.717242   -0.250407
     11          1           0        2.797312   -0.828130    0.095311
     12          8           0       -2.357167   -0.126107   -0.075701
     13          1           0       -2.381726   -0.364556   -1.011691
 ---------------------------------------------------------------------
 Rotational constants (GHZ):     13.4822392      2.3502787      2.1966715
 Standard basis: 6-31G(d,p) (6D, 7F)
 There are   115 symmetry adapted cartesian basis functions of A   symmetry.
 There are   115 symmetry adapted basis functions of A   symmetry.
   115 basis functions,   196 primitive gaussians,   115 cartesian basis functions
    21 alpha electrons       21 beta electrons
       nuclear repulsion energy       187.2577375857 Hartrees.
 NAtoms=   13 NActive=   13 NUniq=   13 SFac= 1.00D+00 NAtFMM=   60 NAOKFM=F Big=F
 Integral buffers will be    131072 words long.
 Raffenetti 2 integral format.
 Two-electron integral symmetry is turned on.
 One-electron integrals computed using PRISM.
 NBasis=   115 RedAO= T EigKep=  4.11D-03  NBF=   115
 NBsUse=   115 1.00D-06 EigRej= -1.00D+00 NBFU=   115
 Initial guess from the checkpoint file:  "/scratch/users/apinto/lixo/Gau-1242875.chk"
 B after Tr=     0.000000    0.000000    0.000000
         Rot=    0.999888    0.014665    0.002328   -0.001740 Ang=   1.71 deg.
 ExpMin= 1.61D-01 ExpMax= 5.48D+03 ExpMxC= 8.25D+02 IAcc=1 IRadAn=         1 AccDes= 0.00D+00
 Harris functional with IExCor=  402 and IRadAn=       1 diagonalized for initial guess.
 HarFok:  IExCor=  402 AccDes= 0.00D+00 IRadAn=         1 IDoV= 1 UseB2=F ITyADJ=14
 ICtDFT=  3500011 ScaDFX=  1.000000  1.000000  1.000000  1.000000
 FoFCou: FMM=F IPFlag=           0 FMFlag=      100000 FMFlg1=           0
         NFxFlg=           0 DoJE=T BraDBF=F KetDBF=T FulRan=T
         wScrn=  0.000000 ICntrl=     500 IOpCl=  0 I1Cent=   200000004 NGrid=           0
         NMat0=    1 NMatS0=      1 NMatT0=    0 NMatD0=    1 NMtDS0=    0 NMtDT0=    0
 Petite list used in FoFCou.
 Keep R1 ints in memory in canonical form, NReq=23243465.
 Requested convergence on RMS density matrix=1.00D-08 within 128 cycles.
 Requested convergence on MAX density matrix=1.00D-06.
 Requested convergence on             energy=1.00D-06.
 No special actions if energy rises.
 Integral accuracy reduced to 1.0D-05 until final iterations.
 Initial convergence to 1.0D-05 achieved.  Increase integral accuracy.
 SCF Done:  E(RB3LYP) =  -269.569968281     A.U. after   10 cycles
            NFock= 10  Conv=0.42D-08     -V/T= 2.0089
 Calling FoFJK, ICntrl=      2127 FMM=F ISym2X=0 I1Cent= 0 IOpClX= 0 NMat=1 NMatS=1 NMatT=0.
 ***** Axes restored to original set *****
 -------------------------------------------------------------------
 Center     Atomic                   Forces (Hartrees/Bohr)
 Number     Number              X              Y              Z
 -------------------------------------------------------------------
      1        6           0.003556036    0.005728442   -0.007977409
      2        1          -0.001352194    0.002714787    0.002595964
      3        1           0.000655518   -0.003737375   -0.000377712
      4        6          -0.001552965    0.002730036    0.005441597
      5        1          -0.002172936   -0.002336834    0.000944724
      6        1           0.002571217    0.001792824   -0.001207616
      7        6           0.000888533   -0.003972701   -0.005431790
      8        1           0.000151039   -0.000856514    0.000602690
      9        1          -0.000157075    0.000724927   -0.000520099
     10        8          -0.002438490   -0.003317767    0.004656038
     11        1          -0.000016200   -0.000040290    0.000120792
     12        8          -0.000312040    0.000558391    0.000922643
     13        1           0.000179557    0.000012074    0.000230176
 -------------------------------------------------------------------
 Cartesian Forces:  Max     0.007977409 RMS     0.002724171

 GradGradGradGradGradGradGradGradGradGradGradGradGradGradGradGradGradGrad
 Berny optimization.
 FormGI is forming the generalized inverse of G from B-inverse, IUseBI=4.
 Internal  Forces:  Max     0.005068437 RMS     0.001526331
 Search for a local minimum.
 Step number   1 out of a maximum of   66 on scan point     2 out of    61
 All quantities printed in internal units (Hartrees-Bohrs-Radians)
 Mixed Optimization -- RFO/linear search
 Second derivative matrix not updated -- first step.
 ITU=  0
     Eigenvalues ---    0.01351   0.01357   0.01371   0.02451   0.04453
     Eigenvalues ---    0.04882   0.05801   0.06017   0.08430   0.10596
     Eigenvalues ---    0.11073   0.11666   0.13523   0.13852   0.16000
     Eigenvalues ---    0.16000   0.21932   0.21956   0.22026   0.29370
     Eigenvalues ---    0.30056   0.33372   0.33544   0.33843   0.33882
     Eigenvalues ---    0.34085   0.34115   0.41602   0.41826   0.54171
     Eigenvalues ---    0.543631000.000001000.000001000.000001000.00000
     Eigenvalues --- 1000.000001000.000001000.000001000.000001000.00000
     Eigenvalues --- 1000.000001000.000001000.000001000.000001000.00000
     Eigenvalues --- 1000.000001000.000001000.000001000.000001000.00000
     Eigenvalues --- 1000.000001000.000001000.000001000.000001000.00000
     Eigenvalues --- 1000.00000
 RFO step:  Lambda=-1.31214476D-03 EMin= 1.35077617D-02
 Linear search not attempted -- first point.
 Iteration  1 RMS(Cart)=  0.02583752 RMS(Int)=  0.00069733
 Iteration  2 RMS(Cart)=  0.00069083 RMS(Int)=  0.00017014
 Iteration  3 RMS(Cart)=  0.00000016 RMS(Int)=  0.00017014
 Iteration  1 RMS(Cart)=  0.00000383 RMS(Int)=  0.00000294
 Iteration  2 RMS(Cart)=  0.00000224 RMS(Int)=  0.00000327
 Iteration  3 RMS(Cart)=  0.00000132 RMS(Int)=  0.00000373
 Iteration  4 RMS(Cart)=  0.00000078 RMS(Int)=  0.00000406
 Variable       Old X    -DE/DX   Delta X   Delta X   Delta X     New X
                                 (Linear)    (Quad)   (Total)
    R1        2.08109   0.00042   0.00000   0.00125   0.00125   2.08234
    R2        2.08405  -0.00049   0.00000  -0.00146  -0.00146   2.08259
    R3        2.87856  -0.00009   0.00000  -0.00030  -0.00030   2.87826
    R4        2.69477   0.00017   0.00000   0.00041   0.00041   2.69518
    R5        2.07603  -0.00085   0.00000  -0.00251  -0.00251   2.07352
    R6        2.07190   0.00047   0.00000   0.00138   0.00138   2.07328
    R7        2.89248   0.00017   0.00000   0.00058   0.00058   2.89306
    R8        2.07539   0.00072   0.00000   0.00213   0.00213   2.07752
    R9        2.07144  -0.00044   0.00000  -0.00130  -0.00130   2.07014
   R10        2.69150  -0.00014   0.00000  -0.00034  -0.00034   2.69115
   R11        1.82404   0.00004   0.00000   0.00006   0.00006   1.82410
   R12        1.82585  -0.00023   0.00000  -0.00042  -0.00042   1.82543
    A1        1.87139  -0.00024   0.00000   0.00047   0.00081   1.87220
    A2        1.90302  -0.00036   0.00000   0.00907   0.00879   1.91180
    A3        1.89552   0.00424   0.00000   0.04604   0.04600   1.94153
    A4        1.92391   0.00103   0.00000  -0.00580  -0.00631   1.91760
    A5        1.98142  -0.00359   0.00000  -0.04207  -0.04230   1.93911
    A6        1.88729  -0.00093   0.00000  -0.00503  -0.00552   1.88177
    A7        1.88316   0.00199   0.00000   0.00678   0.00659   1.88976
    A8        1.91529  -0.00217   0.00000  -0.00926  -0.00941   1.90588
    A9        1.97732   0.00014   0.00000   0.00023   0.00010   1.97742
   A10        1.87043   0.00001   0.00000   0.00134   0.00158   1.87201
   A11        1.95382  -0.00350   0.00000  -0.03007  -0.03000   1.92382
   A12        1.86092   0.00345   0.00000   0.03106   0.03117   1.89209
   A13        1.91486   0.00071   0.00000   0.00968   0.00964   1.92450
   A14        1.91815  -0.00086   0.00000  -0.01041  -0.01042   1.90773
   A15        1.96267   0.00032   0.00000   0.00175   0.00168   1.96435
   A16        1.87230   0.00004   0.00000  -0.00047  -0.00043   1.87187
   A17        1.94214   0.00013   0.00000   0.00723   0.00715   1.94929
   A18        1.85057  -0.00042   0.00000  -0.00889  -0.00892   1.84165
   A19        1.88760  -0.00006   0.00000  -0.00040  -0.00040   1.88721
   A20        1.87400  -0.00033   0.00000  -0.00203  -0.00203   1.87197
    D1        1.09810   0.00220   0.00000   0.09067   0.09073   1.18883
    D2       -0.93434   0.00224   0.00000   0.09026   0.09027  -0.84407
    D3       -3.01192  -0.00073   0.00000   0.05715   0.05717  -2.95475
    D4       -3.13520   0.00230   0.00000   0.09327   0.09325  -3.04196
    D5        1.11555   0.00234   0.00000   0.09286   0.09278   1.20833
    D6       -0.96203  -0.00063   0.00000   0.05975   0.05968  -0.90235
    D7       -0.95988  -0.00214   0.00000   0.03353   0.03357  -0.92631
    D8       -2.99232  -0.00210   0.00000   0.03311   0.03310  -2.95921
    D9        1.21329  -0.00507   0.00000   0.00000   0.00001   1.21330
   D10        1.11208  -0.00027   0.00000  -0.00437  -0.00483   1.10725
   D11       -0.96772  -0.00063   0.00000  -0.01013  -0.00953  -0.97725
   D12       -3.10833   0.00112   0.00000   0.02904   0.02890  -3.07943
   D13       -1.00580   0.00017   0.00000   0.01786   0.01789  -0.98791
   D14        1.04885   0.00013   0.00000   0.01688   0.01686   1.06571
   D15        3.10597  -0.00076   0.00000   0.00000   0.00000   3.10597
   D16        1.12852   0.00023   0.00000   0.00402   0.00417   1.13270
   D17       -3.10001   0.00019   0.00000   0.00303   0.00314  -3.09687
   D18       -1.04289  -0.00070   0.00000  -0.01384  -0.01372  -1.05661
   D19       -3.11441   0.00043   0.00000   0.00816   0.00806  -3.10635
   D20       -1.05975   0.00039   0.00000   0.00717   0.00703  -1.05272
   D21        0.99737  -0.00049   0.00000  -0.00971  -0.00983   0.98753
   D22        1.16736   0.00080   0.00000   0.01238   0.01238   1.17974
   D23       -0.98892  -0.00046   0.00000  -0.00707  -0.00710  -0.99602
   D24       -3.01916  -0.00034   0.00000  -0.00509  -0.00507  -3.02423
         Item               Value     Threshold  Converged?
 Maximum Force            0.002292     0.000450     NO 
 RMS     Force            0.000967     0.000300     NO 
 Maximum Displacement     0.102144     0.001800     NO 
 RMS     Displacement     0.025871     0.001200     NO 
 Predicted change in Energy=-6.876695D-04
 GradGradGradGradGradGradGradGradGradGradGradGradGradGradGradGradGradGrad

                          Input orientation:                          
 ---------------------------------------------------------------------
 Center     Atomic      Atomic             Coordinates (Angstroms)
 Number     Number       Type             X           Y           Z
 ---------------------------------------------------------------------
      1          6           0        1.396340    0.515661    0.234690
      2          1           0        2.001838    1.378475   -0.086503
      3          1           0        1.418506    0.492358    1.336279
      4          6           0       -0.036772    0.690139   -0.250702
      5          1           0       -0.042014    0.607002   -1.344797
      6          1           0       -0.382306    1.700657    0.000609
      7          6           0       -1.010660   -0.320042    0.361554
      8          1           0       -0.672669   -1.346222    0.158232
      9          1           0       -1.027603   -0.193160    1.449519
     10          8           0        1.898167   -0.701004   -0.314872
     11          1           0        2.786277   -0.844770    0.034903
     12          8           0       -2.352907   -0.113438   -0.067093
     13          1           0       -2.388572   -0.324362   -1.009083
 ---------------------------------------------------------------------
                    Distance matrix (angstroms):
                    1          2          3          4          5
     1  C    0.000000
     2  H    1.101926   0.000000
     3  H    1.102058   1.774764   0.000000
     4  C    1.523108   2.157939   2.162281   0.000000
     5  H    2.138220   2.521072   3.055229   1.097261   0.000000
     6  H    2.150021   2.407392   2.546944   1.097132   1.766917
     7  C    2.551107   3.487243   2.740608   1.530941   2.170096
     8  H    2.784466   3.825814   3.023439   2.172178   2.543993
     9  H    2.802452   3.742581   2.542873   2.157015   3.069177
    10  O    1.426227   2.094548   2.092962   2.383985   2.556546
    11  H    1.955151   2.360699   2.313502   3.226007   3.465609
    12  O    3.813619   4.603258   4.069397   2.458440   2.737113
    13  H    4.071630   4.798595   4.545503   2.671201   2.546856
                    6          7          8          9         10
     6  H    0.000000
     7  C    2.146703   0.000000
     8  H    3.064739   1.099374   0.000000
     9  H    2.470281   1.095471   1.767188   0.000000
    10  O    3.326870   3.010642   2.692459   3.454145   0.000000
    11  H    4.064517   3.846918   3.497281   4.119638   0.965272
    12  O    2.679326   1.424096   2.096122   2.015664   4.298635
    13  H    3.024117   1.943529   2.313254   2.813215   4.358890
                   11         12         13
    11  H    0.000000
    12  O    5.191962   0.000000
    13  H    5.304696   0.965975   0.000000
 Stoichiometry    C3H8O2
 Framework group  C1[X(C3H8O2)]
 Deg. of freedom    33
 Full point group                 C1      NOp   1
 Largest Abelian subgroup         C1      NOp   1
 Largest concise Abelian subgroup C1      NOp   1
                         Standard orientation:                         
 ---------------------------------------------------------------------
 Center     Atomic      Atomic             Coordinates (Angstroms)
 Number     Number       Type             X           Y           Z
 ---------------------------------------------------------------------
      1          6           0        1.389825    0.521362    0.236490
      2          1           0        1.997514    1.370423   -0.115717
      3          1           0        1.401344    0.545541    1.338222
      4          6           0       -0.038698    0.672701   -0.269748
      5          1           0       -0.033257    0.542528   -1.359246
      6          1           0       -0.387694    1.692601   -0.065529
      7          6           0       -1.017426   -0.311593    0.376036
      8          1           0       -0.676421   -1.345084    0.220362
      9          1           0       -1.045036   -0.138010    1.457315
     10          8           0        1.898209   -0.717108   -0.255306
     11          1           0        2.783038   -0.844393    0.108875
     12          8           0       -2.355671   -0.125581   -0.074019
     13          1           0       -2.381992   -0.376919   -1.006352
 ---------------------------------------------------------------------
 Rotational constants (GHZ):     13.4445436      2.3559793      2.2006042
 Standard basis: 6-31G(d,p) (6D, 7F)
 There are   115 symmetry adapted cartesian basis functions of A   symmetry.
 There are   115 symmetry adapted basis functions of A   symmetry.
   115 basis functions,   196 primitive gaussians,   115 cartesian basis functions
    21 alpha electrons       21 beta electrons
       nuclear repulsion energy       187.3296871861 Hartrees.
 NAtoms=   13 NActive=   13 NUniq=   13 SFac= 1.00D+00 NAtFMM=   60 NAOKFM=F Big=F
 Integral buffers will be    131072 words long.
 Raffenetti 2 integral format.
 Two-electron integral symmetry is turned on.
 One-electron integrals computed using PRISM.
 NBasis=   115 RedAO= T EigKep=  4.08D-03  NBF=   115
 NBsUse=   115 1.00D-06 EigRej= -1.00D+00 NBFU=   115
 Initial guess from the checkpoint file:  "/scratch/users/apinto/lixo/Gau-1242875.chk"
 B after Tr=     0.000000    0.000000    0.000000
         Rot=    1.000000    0.000670   -0.000062    0.000524 Ang=   0.10 deg.
 ExpMin= 1.61D-01 ExpMax= 5.48D+03 ExpMxC= 8.25D+02 IAcc=1 IRadAn=         1 AccDes= 0.00D+00
 Harris functional with IExCor=  402 and IRadAn=       1 diagonalized for initial guess.
 HarFok:  IExCor=  402 AccDes= 0.00D+00 IRadAn=         1 IDoV= 1 UseB2=F ITyADJ=14
 ICtDFT=  3500011 ScaDFX=  1.000000  1.000000  1.000000  1.000000
 FoFCou: FMM=F IPFlag=           0 FMFlag=      100000 FMFlg1=           0
         NFxFlg=           0 DoJE=T BraDBF=F KetDBF=T FulRan=T
         wScrn=  0.000000 ICntrl=     500 IOpCl=  0 I1Cent=   200000004 NGrid=           0
         NMat0=    1 NMatS0=      1 NMatT0=    0 NMatD0=    1 NMtDS0=    0 NMtDT0=    0
 Petite list used in FoFCou.
 Keep R1 ints in memory in canonical form, NReq=23243465.
 Requested convergence on RMS density matrix=1.00D-08 within 128 cycles.
 Requested convergence on MAX density matrix=1.00D-06.
 Requested convergence on             energy=1.00D-06.
 No special actions if energy rises.
 Integral accuracy reduced to 1.0D-05 until final iterations.
 Initial convergence to 1.0D-05 achieved.  Increase integral accuracy.
 SCF Done:  E(RB3LYP) =  -269.570585377     A.U. after    9 cycles
            NFock=  9  Conv=0.88D-08     -V/T= 2.0089
 Calling FoFJK, ICntrl=      2127 FMM=F ISym2X=0 I1Cent= 0 IOpClX= 0 NMat=1 NMatS=1 NMatT=0.
 ***** Axes restored to original set *****
 -------------------------------------------------------------------
 Center     Atomic                   Forces (Hartrees/Bohr)
 Number     Number              X              Y              Z
 -------------------------------------------------------------------
      1        6           0.000116034   -0.000120640   -0.001854545
      2        1           0.000121076   -0.000651292   -0.000039008
      3        1           0.000040581    0.000296434    0.000378045
      4        6          -0.000890270    0.001402023    0.002404101
      5        1          -0.000100582   -0.000209228   -0.000436597
      6        1           0.000130218   -0.000241527   -0.000453068
      7        6           0.000075599   -0.000263469   -0.000410920
      8        1           0.000189014    0.000513127   -0.000363105
      9        1          -0.000087344   -0.000305239    0.000471169
     10        8           0.000198322   -0.000025729    0.000671111
     11        1           0.000072616   -0.000157457    0.000030848
     12        8           0.000356575   -0.000287327   -0.000170970
     13        1          -0.000221839    0.000050325   -0.000227061
 -------------------------------------------------------------------
 Cartesian Forces:  Max     0.002404101 RMS     0.000621505

 GradGradGradGradGradGradGradGradGradGradGradGradGradGradGradGradGradGrad
 Berny optimization.
 Using GEDIIS/GDIIS optimizer.
 FormGI is forming the generalized inverse of G from B-inverse, IUseBI=4.
 Internal  Forces:  Max     0.000959645 RMS     0.000362469
 Search for a local minimum.
 Step number   2 out of a maximum of   66 on scan point     2 out of    61
 All quantities printed in internal units (Hartrees-Bohrs-Radians)
 Mixed Optimization -- En-DIIS/RFO-DIIS
 Update second derivatives using D2CorX and points    1    2
 DE= -6.17D-04 DEPred=-6.88D-04 R= 8.97D-01
 TightC=F SS=  1.41D+00  RLast= 2.27D-01 DXNew= 5.0454D-01 6.7991D-01
 Trust test= 8.97D-01 RLast= 2.27D-01 DXMaxT set to 5.05D-01
 ITU=  1  0
 Use linear search instead of GDIIS.
     Eigenvalues ---    0.01292   0.01352   0.01371   0.02768   0.04516
     Eigenvalues ---    0.04876   0.05808   0.06009   0.08436   0.10295
     Eigenvalues ---    0.11042   0.11681   0.13611   0.14202   0.16000
     Eigenvalues ---    0.16050   0.21946   0.22026   0.22121   0.29383
     Eigenvalues ---    0.30070   0.33395   0.33573   0.33863   0.33947
     Eigenvalues ---    0.34097   0.34238   0.41602   0.41825   0.54182
     Eigenvalues ---    0.543631000.000001000.000001000.000001000.00000
     Eigenvalues --- 1000.000001000.000001000.000001000.000001000.00000
     Eigenvalues --- 1000.000001000.000001000.000001000.000001000.00000
     Eigenvalues --- 1000.000001000.000001000.000001000.000001000.00000
     Eigenvalues --- 1000.000001000.000001000.000001000.000001000.00000
     Eigenvalues --- 1000.00000
 RFO step:  Lambda=-3.37809775D-05 EMin= 1.29213535D-02
 Quartic linear search produced a step of -0.05560.
 Iteration  1 RMS(Cart)=  0.00486871 RMS(Int)=  0.00002123
 Iteration  2 RMS(Cart)=  0.00001787 RMS(Int)=  0.00000894
 Iteration  3 RMS(Cart)=  0.00000000 RMS(Int)=  0.00000894
 Iteration  1 RMS(Cart)=  0.00000036 RMS(Int)=  0.00000026
 Variable       Old X    -DE/DX   Delta X   Delta X   Delta X     New X
                                 (Linear)    (Quad)   (Total)
    R1        2.08234  -0.00043  -0.00007  -0.00111  -0.00118   2.08115
    R2        2.08259   0.00037   0.00008   0.00094   0.00102   2.08361
    R3        2.87826   0.00033   0.00002   0.00102   0.00104   2.87930
    R4        2.69518  -0.00003  -0.00002  -0.00003  -0.00005   2.69513
    R5        2.07352   0.00045   0.00014   0.00107   0.00121   2.07473
    R6        2.07328  -0.00037  -0.00008  -0.00091  -0.00099   2.07229
    R7        2.89306  -0.00028  -0.00003  -0.00086  -0.00090   2.89216
    R8        2.07752  -0.00035  -0.00012  -0.00082  -0.00094   2.07658
    R9        2.07014   0.00043   0.00007   0.00110   0.00117   2.07131
   R10        2.69115  -0.00004   0.00002  -0.00013  -0.00011   2.69104
   R11        1.82410   0.00010   0.00000   0.00019   0.00018   1.82428
   R12        1.82543   0.00022   0.00002   0.00035   0.00038   1.82580
    A1        1.87220  -0.00001  -0.00005  -0.00116  -0.00122   1.87098
    A2        1.91180   0.00026  -0.00049   0.00148   0.00101   1.91282
    A3        1.94153  -0.00031  -0.00256  -0.00247  -0.00503   1.93650
    A4        1.91760  -0.00033   0.00035  -0.00028   0.00010   1.91770
    A5        1.93911  -0.00036   0.00235  -0.00071   0.00165   1.94076
    A6        1.88177   0.00075   0.00031   0.00314   0.00348   1.88525
    A7        1.88976   0.00008  -0.00037  -0.00054  -0.00090   1.88886
    A8        1.90588   0.00011   0.00052   0.00176   0.00229   1.90816
    A9        1.97742  -0.00016  -0.00001  -0.00053  -0.00053   1.97689
   A10        1.87201  -0.00010  -0.00009  -0.00095  -0.00104   1.87097
   A11        1.92382  -0.00056   0.00167  -0.00582  -0.00415   1.91966
   A12        1.89209   0.00063  -0.00173   0.00607   0.00433   1.89642
   A13        1.92450  -0.00071  -0.00054  -0.00579  -0.00633   1.91818
   A14        1.90773   0.00054   0.00058   0.00459   0.00517   1.91290
   A15        1.96435   0.00006  -0.00009   0.00020   0.00010   1.96445
   A16        1.87187   0.00006   0.00002   0.00064   0.00067   1.87254
   A17        1.94929   0.00014  -0.00040  -0.00070  -0.00111   1.94818
   A18        1.84165  -0.00003   0.00050   0.00165   0.00214   1.84379
   A19        1.88721   0.00021   0.00002   0.00122   0.00124   1.88845
   A20        1.87197   0.00041   0.00011   0.00228   0.00240   1.87437
    D1        1.18883   0.00004  -0.00504   0.00795   0.00291   1.19174
    D2       -0.84407   0.00005  -0.00502   0.00842   0.00341  -0.84067
    D3       -2.95475  -0.00073  -0.00318  -0.00021  -0.00339  -2.95814
    D4       -3.04196  -0.00002  -0.00518   0.00726   0.00207  -3.03988
    D5        1.20833  -0.00001  -0.00516   0.00773   0.00257   1.21090
    D6       -0.90235  -0.00079  -0.00332  -0.00091  -0.00423  -0.90657
    D7       -0.92631  -0.00019  -0.00187   0.00817   0.00630  -0.92001
    D8       -2.95921  -0.00018  -0.00184   0.00864   0.00680  -2.95242
    D9        1.21330  -0.00096   0.00000   0.00000   0.00000   1.21329
   D10        1.10725  -0.00031   0.00027   0.00161   0.00191   1.10916
   D11       -0.97725   0.00015   0.00053   0.00519   0.00569  -0.97156
   D12       -3.07943   0.00030  -0.00161   0.00395   0.00235  -3.07708
   D13       -0.98791   0.00021  -0.00099  -0.00525  -0.00624  -0.99415
   D14        1.06571   0.00019  -0.00094  -0.00512  -0.00606   1.05965
   D15        3.10597   0.00053   0.00000   0.00000   0.00000   3.10597
   D16        1.13270  -0.00021  -0.00023  -0.01056  -0.01079   1.12191
   D17       -3.09687  -0.00023  -0.00017  -0.01043  -0.01061  -3.10748
   D18       -1.05661   0.00011   0.00076  -0.00531  -0.00455  -1.06116
   D19       -3.10635  -0.00028  -0.00045  -0.01143  -0.01187  -3.11822
   D20       -1.05272  -0.00029  -0.00039  -0.01130  -0.01169  -1.06442
   D21        0.98753   0.00005   0.00055  -0.00618  -0.00563   0.98190
   D22        1.17974  -0.00051  -0.00069  -0.00670  -0.00739   1.17235
   D23       -0.99602   0.00028   0.00039   0.00139   0.00178  -0.99423
   D24       -3.02423   0.00015   0.00028   0.00003   0.00031  -3.02392
         Item               Value     Threshold  Converged?
 Maximum Force            0.000751     0.000450     NO 
 RMS     Force            0.000285     0.000300     YES
 Maximum Displacement     0.015961     0.001800     NO 
 RMS     Displacement     0.004870     0.001200     NO 
 Predicted change in Energy=-1.904392D-05
 GradGradGradGradGradGradGradGradGradGradGradGradGradGradGradGradGradGrad

                          Input orientation:                          
 ---------------------------------------------------------------------
 Center     Atomic      Atomic             Coordinates (Angstroms)
 Number     Number       Type             X           Y           Z
 ---------------------------------------------------------------------
      1          6           0        1.395571    0.515354    0.234935
      2          1           0        2.002433    1.375556   -0.088533
      3          1           0        1.418945    0.495912    1.337114
      4          6           0       -0.038283    0.690400   -0.249788
      5          1           0       -0.044120    0.601054   -1.344031
      6          1           0       -0.383148    1.702234   -0.005229
      7          6           0       -1.011140   -0.319855    0.362802
      8          1           0       -0.671207   -1.342945    0.150042
      9          1           0       -1.026302   -0.201606    1.452389
     10          8           0        1.901173   -0.700396   -0.313121
     11          1           0        2.788573   -0.843744    0.038889
     12          8           0       -2.353790   -0.113490   -0.064506
     13          1           0       -2.391078   -0.317183   -1.008228
 ---------------------------------------------------------------------
                    Distance matrix (angstroms):
                    1          2          3          4          5
     1  C    0.000000
     2  H    1.101299   0.000000
     3  H    1.102598   1.773894   0.000000
     4  C    1.523658   2.158695   2.163238   0.000000
     5  H    2.138501   2.522797   3.056167   1.097901   0.000000
     6  H    2.151791   2.409285   2.550420   1.096608   1.766331
     7  C    2.550721   3.487082   2.742275   1.530467   2.167136
     8  H    2.780657   3.820408   3.026429   2.166783   2.530737
     9  H    2.803871   3.746347   2.545399   2.160848   3.070654
    10  O    1.426201   2.090519   2.094510   2.387428   2.557482
    11  H    1.956026   2.357868   2.314291   3.229248   3.467572
    12  O    3.813505   4.603750   4.070558   2.458077   2.735386
    13  H    4.071521   4.797306   4.547311   2.669476   2.542467
                    6          7          8          9         10
     6  H    0.000000
     7  C    2.149107   0.000000
     8  H    3.062711   1.098878   0.000000
     9  H    2.482520   1.096090   1.767726   0.000000
    10  O    3.329497   3.013843   2.691566   3.454841   0.000000
    11  H    4.067402   3.849311   3.497376   4.118689   0.965369
    12  O    2.680261   1.424039   2.094916   2.017662   4.302439
    13  H    3.019244   1.945240   2.313381   2.816134   4.365025
                   11         12         13
    11  H    0.000000
    12  O    5.194984   0.000000
    13  H    5.310603   0.966174   0.000000
 Stoichiometry    C3H8O2
 Framework group  C1[X(C3H8O2)]
 Deg. of freedom    33
 Full point group                 C1      NOp   1
 Largest Abelian subgroup         C1      NOp   1
 Largest concise Abelian subgroup C1      NOp   1
                         Standard orientation:                         
 ---------------------------------------------------------------------
 Center     Atomic      Atomic             Coordinates (Angstroms)
 Number     Number       Type             X           Y           Z
 ---------------------------------------------------------------------
      1          6           0        1.388836    0.520719    0.237350
      2          1           0        1.997678    1.368251   -0.114588
      3          1           0        1.401405    0.545744    1.339593
      4          6           0       -0.040422    0.673576   -0.268011
      5          1           0       -0.035385    0.540202   -1.357769
      6          1           0       -0.389049    1.693836   -0.067816
      7          6           0       -1.017878   -0.312880    0.375275
      8          1           0       -0.674481   -1.343114    0.207257
      9          1           0       -1.043907   -0.150850    1.459011
     10          8           0        1.901451   -0.715238   -0.256292
     11          1           0        2.785543   -0.842729    0.109857
     12          8           0       -2.356543   -0.126256   -0.073092
     13          1           0       -2.384279   -0.367875   -1.008156
 ---------------------------------------------------------------------
 Rotational constants (GHZ):     13.4602950      2.3531344      2.1984398
 Standard basis: 6-31G(d,p) (6D, 7F)
 There are   115 symmetry adapted cartesian basis functions of A   symmetry.
 There are   115 symmetry adapted basis functions of A   symmetry.
   115 basis functions,   196 primitive gaussians,   115 cartesian basis functions
    21 alpha electrons       21 beta electrons
       nuclear repulsion energy       187.2940562361 Hartrees.
 NAtoms=   13 NActive=   13 NUniq=   13 SFac= 1.00D+00 NAtFMM=   60 NAOKFM=F Big=F
 Integral buffers will be    131072 words long.
 Raffenetti 2 integral format.
 Two-electron integral symmetry is turned on.
 One-electron integrals computed using PRISM.
 NBasis=   115 RedAO= T EigKep=  4.09D-03  NBF=   115
 NBsUse=   115 1.00D-06 EigRej= -1.00D+00 NBFU=   115
 Initial guess from the checkpoint file:  "/scratch/users/apinto/lixo/Gau-1242875.chk"
 B after Tr=     0.000000    0.000000    0.000000
         Rot=    0.999999   -0.001232   -0.000016   -0.000264 Ang=  -0.14 deg.
 Keep R1 ints in memory in canonical form, NReq=23243465.
 Requested convergence on RMS density matrix=1.00D-08 within 128 cycles.
 Requested convergence on MAX density matrix=1.00D-06.
 Requested convergence on             energy=1.00D-06.
 No special actions if energy rises.
 SCF Done:  E(RB3LYP) =  -269.570605991     A.U. after    8 cycles
            NFock=  8  Conv=0.39D-08     -V/T= 2.0089
 Calling FoFJK, ICntrl=      2127 FMM=F ISym2X=0 I1Cent= 0 IOpClX= 0 NMat=1 NMatS=1 NMatT=0.
 ***** Axes restored to original set *****
 -------------------------------------------------------------------
 Center     Atomic                   Forces (Hartrees/Bohr)
 Number     Number              X              Y              Z
 -------------------------------------------------------------------
      1        6           0.000643313    0.000271244   -0.001546288
      2        1          -0.000010658   -0.000020415   -0.000025184
      3        1          -0.000040677    0.000078689    0.000061785
      4        6          -0.000366506    0.000796433    0.001698525
      5        1          -0.000012808   -0.000028392   -0.000124952
      6        1           0.000117683   -0.000045833   -0.000054877
      7        6           0.000064982   -0.000515338   -0.000829918
      8        1           0.000139530    0.000014741   -0.000010462
      9        1          -0.000151884   -0.000061763   -0.000042738
     10        8          -0.000408933   -0.000457168    0.000716829
     11        1          -0.000097514    0.000024419    0.000065164
     12        8           0.000081768   -0.000082228    0.000061296
     13        1           0.000041703    0.000025611    0.000030819
 -------------------------------------------------------------------
 Cartesian Forces:  Max     0.001698525 RMS     0.000467192

 GradGradGradGradGradGradGradGradGradGradGradGradGradGradGradGradGradGrad
 Berny optimization.
 Using GEDIIS/GDIIS optimizer.
 FormGI is forming the generalized inverse of G from B-inverse, IUseBI=4.
 Internal  Forces:  Max     0.001034107 RMS     0.000244128
 Search for a local minimum.
 Step number   3 out of a maximum of   66 on scan point     2 out of    61
 All quantities printed in internal units (Hartrees-Bohrs-Radians)
 Mixed Optimization -- En-DIIS/RFO-DIIS
 Swapping is turned off.
 Update second derivatives using D2CorX and points    1    2    3
 DE= -2.06D-05 DEPred=-1.90D-05 R= 1.08D+00
 TightC=F SS=  1.41D+00  RLast= 3.25D-02 DXNew= 8.4853D-01 9.7475D-02
 Trust test= 1.08D+00 RLast= 3.25D-02 DXMaxT set to 5.05D-01
 ITU=  1  1  0
     Eigenvalues ---    0.01198   0.01370   0.01401   0.02824   0.04468
     Eigenvalues ---    0.04870   0.05809   0.05998   0.08450   0.09702
     Eigenvalues ---    0.11255   0.11726   0.12956   0.13642   0.15988
     Eigenvalues ---    0.16400   0.21907   0.21981   0.23249   0.29361
     Eigenvalues ---    0.30449   0.33281   0.33541   0.33706   0.33954
     Eigenvalues ---    0.34034   0.34516   0.41640   0.41916   0.54219
     Eigenvalues ---    0.544541000.000001000.000001000.000001000.00000
     Eigenvalues --- 1000.000001000.000001000.000001000.000001000.00000
     Eigenvalues --- 1000.000001000.000001000.000001000.000001000.00000
     Eigenvalues --- 1000.000001000.000001000.000001000.000001000.00000
     Eigenvalues --- 1000.000001000.000001000.000001000.000001000.00000
     Eigenvalues --- 1000.00000
 En-DIIS/RFO-DIIS IScMMF=        0 using points:     3    2
 RFO step:  Lambda=-9.33593681D-07.
 DidBck=F Rises=F RFO-DIIS coefs:    1.07488   -0.07488
 Iteration  1 RMS(Cart)=  0.00129008 RMS(Int)=  0.00000191
 Iteration  2 RMS(Cart)=  0.00000180 RMS(Int)=  0.00000050
 Iteration  3 RMS(Cart)=  0.00000000 RMS(Int)=  0.00000050
 Iteration  1 RMS(Cart)=  0.00000014 RMS(Int)=  0.00000010
 Variable       Old X    -DE/DX   Delta X   Delta X   Delta X     New X
                                 (Linear)    (Quad)   (Total)
    R1        2.08115  -0.00001  -0.00009  -0.00003  -0.00012   2.08103
    R2        2.08361   0.00006   0.00008   0.00018   0.00026   2.08387
    R3        2.87930  -0.00014   0.00008  -0.00050  -0.00043   2.87887
    R4        2.69513  -0.00012   0.00000  -0.00031  -0.00031   2.69482
    R5        2.07473   0.00013   0.00009   0.00040   0.00049   2.07522
    R6        2.07229  -0.00009  -0.00007  -0.00028  -0.00036   2.07193
    R7        2.89216  -0.00002  -0.00007  -0.00006  -0.00012   2.89204
    R8        2.07658   0.00003  -0.00007   0.00011   0.00004   2.07662
    R9        2.07131  -0.00005   0.00009  -0.00016  -0.00007   2.07124
   R10        2.69104  -0.00015  -0.00001  -0.00040  -0.00041   2.69064
   R11        1.82428  -0.00007   0.00001  -0.00013  -0.00012   1.82417
   R12        1.82580  -0.00003   0.00003  -0.00007  -0.00004   1.82576
    A1        1.87098  -0.00001  -0.00009   0.00009   0.00000   1.87097
    A2        1.91282   0.00014   0.00008   0.00010   0.00018   1.91299
    A3        1.93650   0.00043  -0.00038   0.00003  -0.00035   1.93615
    A4        1.91770  -0.00013   0.00001  -0.00042  -0.00041   1.91729
    A5        1.94076  -0.00027   0.00012   0.00102   0.00114   1.94190
    A6        1.88525  -0.00015   0.00026  -0.00082  -0.00056   1.88469
    A7        1.88886  -0.00001  -0.00007  -0.00017  -0.00024   1.88862
    A8        1.90816  -0.00003   0.00017  -0.00040  -0.00023   1.90793
    A9        1.97689   0.00000  -0.00004  -0.00002  -0.00006   1.97683
   A10        1.87097  -0.00001  -0.00008  -0.00009  -0.00016   1.87081
   A11        1.91966  -0.00043  -0.00031  -0.00058  -0.00089   1.91877
   A12        1.89642   0.00048   0.00032   0.00124   0.00156   1.89798
   A13        1.91818  -0.00020  -0.00047  -0.00116  -0.00164   1.91654
   A14        1.91290   0.00017   0.00039   0.00120   0.00158   1.91448
   A15        1.96445   0.00009   0.00001   0.00049   0.00050   1.96495
   A16        1.87254   0.00000   0.00005  -0.00012  -0.00007   1.87247
   A17        1.94818   0.00006  -0.00008   0.00102   0.00093   1.94911
   A18        1.84379  -0.00013   0.00016  -0.00141  -0.00125   1.84253
   A19        1.88845  -0.00012   0.00009  -0.00085  -0.00076   1.88769
   A20        1.87437  -0.00007   0.00018  -0.00050  -0.00032   1.87405
    D1        1.19174   0.00003   0.00022   0.00047   0.00069   1.19242
    D2       -0.84067   0.00006   0.00026   0.00088   0.00114  -0.83953
[...]
           R8           1.09591   1.09606   1.09640   1.09689   1.09748
           R9           1.09524   1.09564   1.09593   1.09609   1.09615
           R10          1.42568   1.42559   1.42536   1.42509   1.42470
           R11          0.96508   0.96509   0.96511   0.96513   0.96517
           R12          0.96621   0.96618   0.96615   0.96613   0.96613
           A1         107.03852 107.10894 107.16512 107.20461 107.21834
           A2         109.89135 109.82052 109.72378 109.65652 109.60501
           A3         111.65253 111.65805 111.60426 111.48326 111.32463
           A4         109.19575 109.17142 109.26651 109.36342 109.53165
           A5         109.85776 110.03933 110.27958 110.54953 110.81217
           A6         109.16061 109.00278 108.77104 108.56090 108.33503
           A7         109.13179 109.04092 108.86211 108.72370 108.54157
           A8         109.48781 109.33788 109.26647 109.22039 109.21729
           A9         114.36522 114.12326 113.90192 113.68380 113.49558
           A10        106.58179 106.72498 106.86731 106.97692 107.08461
           A11        107.43368 107.73216 108.13359 108.57674 109.05817
           A12        109.53722 109.61084 109.56658 109.44014 109.24427
           A13        109.90120 109.86975 109.84201 109.81935 109.81107
           A14        110.60764 110.45325 110.27551 110.10851 109.93157
           A15        111.62224 111.77926 111.95222 112.12419 112.29955
           A16        107.14721 107.18822 107.21983 107.24110 107.26424
           A17        111.69174 111.68161 111.68194 111.67781 111.67777
           A18        105.70714 105.69737 105.68807 105.67809 105.65240
           A19        107.91936 107.97107 108.02150 108.07217 108.11604
           A20        107.37226 107.35357 107.34505 107.34404 107.35511
           D1          35.93004  41.63251  47.11736  52.47025  57.74310
           D2         -80.37728 -74.71121 -69.25665 -63.93195 -58.68449
           D3         156.27672 162.13512 167.85809 173.53350 179.16574
           D4         153.05421 158.78683 164.33927 169.75751 175.11527
           D5          36.74689  42.44310  47.96526  53.35531  58.68768
           D6         -86.59911 -80.71057 -74.92000 -69.17924 -63.46209
           D7         -86.82992 -80.98602 -75.22401 -69.54654 -63.90589
           D8         156.86276 162.67025 168.40197 174.05127 179.66653
           D9          33.51676  39.51658  45.51672  51.51672  57.51675
           D10         57.84869  58.03900  58.69267  59.87066  61.32499
           D11        -60.74320 -60.76248 -60.30226 -59.27348 -57.90639
           D12        179.54903 179.54671 179.88872-179.23321-178.08917
           D13        -57.54136 -57.46573 -57.36209 -57.26075 -57.14027
           D14         60.56545  60.57796  60.59563  60.60854  60.64619
           D15        177.96342 177.96321 177.96305 177.96285 177.96277
           D16         63.74587  63.76473  63.78518  63.88471  63.99287
           D17       -178.14732-178.19157-178.25709-178.24600-178.22067
           D18        -60.74935 -60.80632 -60.88968 -60.89169 -60.90409
           D19        179.13926 179.52878 179.91678-179.67418-179.27507
           D20        -62.75393 -62.42752 -62.12550 -61.80489 -61.48860
           D21         54.64404  54.95773  55.24192  55.54942  55.82798
           D22         66.53951  66.78714  67.04287  67.32487  67.38453
           D23        -56.94710 -56.76718 -56.60405 -56.41779 -56.47903
           D24       -173.14480-173.00285-172.87212-172.70327-172.77708
                          61
     Eigenvalues --  -269.57076
           R1           1.10125
           R2           1.10282
           R3           1.52320
           R4           1.42578
           R5           1.09853
           R6           1.09642
           R7           1.53058
           R8           1.09820
           R9           1.09611
           R10          1.42427
           R11          0.96524
           R12          0.96615
           A1         107.21771
           A2         109.58686
           A3         111.13396
           A4         109.69273
           A5         111.05005
           A6         108.15206
           A7         108.38455
           A8         109.22716
           A9         113.38525
           A10        107.14035
           A11        109.51343
           A12        109.00190
           A13        109.81468
           A14        109.79534
           A15        112.44499
           A16        107.27586
           A17        111.68255
           A18        105.61129
           A19        108.15150
           A20        107.37441
           D1          62.99109
           D2         -53.42112
           D3        -175.19134
           D4        -179.55377
           D5          64.03402
           D6         -57.73620
           D7         -58.30074
           D8        -174.71295
           D9          63.51683
           D10         63.04996
           D11        -56.21242
           D12       -176.62098
           D13        -57.02551
           D14         60.69592
           D15        177.96280
           D16         64.15961
           D17       -178.11897
           D18        -60.85208
           D19       -178.92147
           D20        -61.20005
           D21         56.06683
           D22         67.26633
           D23        -56.71558
           D24       -173.00598
                          Input orientation:                          
 ---------------------------------------------------------------------
 Center     Atomic      Atomic             Coordinates (Angstroms)
 Number     Number       Type             X           Y           Z
 ---------------------------------------------------------------------
      1          6           0        1.452996   -0.063753   -0.120991
      2          1           0        2.080900   -0.839620   -0.586302
      3          1           0        1.743766    0.902184   -0.566662
      4          6           0       -0.013540   -0.346372   -0.420226
      5          1           0       -0.281955   -1.307392    0.039290
      6          1           0       -0.146208   -0.457632   -1.502883
      7          6           0       -0.958571    0.745050    0.088107
      8          1           0       -0.822795    0.881077    1.169362
      9          1           0       -0.716163    1.699615   -0.393038
     10          8           0        1.622123   -0.046209    1.294613
     11          1           0        2.539558    0.185638    1.484993
     12          8           0       -2.319027    0.483702   -0.242642
     13          1           0       -2.593459   -0.294996    0.259112
 ---------------------------------------------------------------------
                    Distance matrix (angstroms):
                    1          2          3          4          5
     1  C    0.000000
     2  H    1.101248   0.000000
     3  H    1.102816   1.774240   0.000000
     4  C    1.523202   2.158137   2.160662   0.000000
     5  H    2.140651   2.488627   3.058259   1.098527   0.000000
     6  H    2.149935   2.438452   2.509504   1.096416   1.766018
     7  C    2.552164   3.493478   2.784966   1.530584   2.161645
     8  H    2.781536   3.804550   3.098622   2.165251   2.521699
     9  H    2.808688   3.782674   2.591774   2.163441   3.068800
    10  O    1.425779   2.092324   2.092508   2.388758   2.606133
    11  H    1.954993   2.356223   2.314306   3.229737   3.504302
    12  O    3.813485   4.607455   4.097122   2.456793   2.727116
    13  H    4.070841   4.781315   4.574566   2.668355   2.533044
                    6          7          8          9         10
     6  H    0.000000
     7  C    2.153515   0.000000
     8  H    3.064443   1.098204   0.000000
     9  H    2.492051   1.096109   1.767051   0.000000
    10  O    3.335004   2.956641   2.617856   3.371001   0.000000
    11  H    4.068727   3.808036   3.447996   4.052017   0.965238
    12  O    2.682436   1.424268   2.095322   2.017483   4.263405
    13  H    3.019953   1.945198   2.312348   2.815672   4.348021
                   11         12         13
    11  H    0.000000
    12  O    5.165212   0.000000
    13  H    5.299213   0.966146   0.000000
 Stoichiometry    C3H8O2
 Framework group  C1[X(C3H8O2)]
 Deg. of freedom    33
 Full point group                 C1      NOp   1
 Largest Abelian subgroup         C1      NOp   1
 Largest concise Abelian subgroup C1      NOp   1
                         Standard orientation:                         
 ---------------------------------------------------------------------
 Center     Atomic      Atomic             Coordinates (Angstroms)
 Number     Number       Type             X           Y           Z
 ---------------------------------------------------------------------
      1          6           0        1.398172    0.527208    0.224267
      2          1           0        2.014146    1.353044   -0.164728
      3          1           0        1.443222    0.576805    1.325046
      4          6           0       -0.042271    0.702508   -0.238913
      5          1           0       -0.063428    0.641617   -1.335547
      6          1           0       -0.390389    1.705239    0.035812
      7          6           0       -1.000257   -0.336174    0.349382
      8          1           0       -0.652996   -1.347294    0.098191
      9          1           0       -1.007996   -0.256866    1.442591
     10          8           0        1.867499   -0.732340   -0.251252
     11          1           0        2.761411   -0.867325    0.086953
     12          8           0       -2.348214   -0.125952   -0.059712
     13          1           0       -2.392114   -0.300143   -1.009011
 ---------------------------------------------------------------------
 Rotational constants (GHZ):     13.2404753      2.3923060      2.2124822

 **********************************************************************

            Population analysis using the SCF density.

 **********************************************************************

 Orbital symmetries:
       Occupied  (A) (A) (A) (A) (A) (A) (A) (A) (A) (A) (A) (A)
                 (A) (A) (A) (A) (A) (A) (A) (A) (A)
       Virtual   (A) (A) (A) (A) (A) (A) (A) (A) (A) (A) (A) (A)
                 (A) (A) (A) (A) (A) (A) (A) (A) (A) (A) (A) (A)
                 (A) (A) (A) (A) (A) (A) (A) (A) (A) (A) (A) (A)
                 (A) (A) (A) (A) (A) (A) (A) (A) (A) (A) (A) (A)
                 (A) (A) (A) (A) (A) (A) (A) (A) (A) (A) (A) (A)
                 (A) (A) (A) (A) (A) (A) (A) (A) (A) (A) (A) (A)
                 (A) (A) (A) (A) (A) (A) (A) (A) (A) (A) (A) (A)
                 (A) (A) (A) (A) (A) (A) (A) (A) (A) (A)
 The electronic state is 1-A.
 Alpha  occ. eigenvalues --  -19.14537 -19.13482 -10.23444 -10.22072 -10.18012
 Alpha  occ. eigenvalues --   -1.01697  -1.00582  -0.76971  -0.66355  -0.58969
 Alpha  occ. eigenvalues --   -0.52340  -0.48954  -0.46183  -0.42866  -0.40516
 Alpha  occ. eigenvalues --   -0.37160  -0.36847  -0.33208  -0.31448  -0.27433
 Alpha  occ. eigenvalues --   -0.25400
 Alpha virt. eigenvalues --    0.07025   0.08343   0.11585   0.13601   0.16316
 Alpha virt. eigenvalues --    0.16815   0.18048   0.19149   0.21587   0.23623
 Alpha virt. eigenvalues --    0.24965   0.26677   0.53045   0.53749   0.55103
 Alpha virt. eigenvalues --    0.56397   0.57637   0.66539   0.66918   0.71618
 Alpha virt. eigenvalues --    0.73187   0.77700   0.79224   0.83040   0.83455
 Alpha virt. eigenvalues --    0.85938   0.88464   0.90817   0.91699   0.95207
 Alpha virt. eigenvalues --    0.98418   1.01486   1.02062   1.05059   1.10622
 Alpha virt. eigenvalues --    1.20803   1.25712   1.33522   1.35388   1.45338
 Alpha virt. eigenvalues --    1.51665   1.55741   1.57313   1.60053   1.63793
 Alpha virt. eigenvalues --    1.67838   1.72750   1.79731   1.83701   1.86469
 Alpha virt. eigenvalues --    1.89944   1.94279   1.95556   2.02629   2.04521
 Alpha virt. eigenvalues --    2.09568   2.10887   2.13710   2.20723   2.24326
 Alpha virt. eigenvalues --    2.27473   2.32668   2.36335   2.40254   2.42426
 Alpha virt. eigenvalues --    2.44809   2.50098   2.58952   2.61832   2.64640
 Alpha virt. eigenvalues --    2.65991   2.70039   2.70999   2.72982   2.78708
 Alpha virt. eigenvalues --    2.82106   2.88364   2.89369   2.91752   2.96229
 Alpha virt. eigenvalues --    3.02200   3.21760   3.28470   3.33193   3.35410
 Alpha virt. eigenvalues --    3.44138   3.46289   3.50391   3.56893   3.89297
 Alpha virt. eigenvalues --    3.94031   4.31242   4.50105   4.66355
          Condensed to atoms (all electrons):
               1          2          3          4          5          6
     1  C    4.768587   0.366214   0.369669   0.318004  -0.030992  -0.027715
     2  H    0.366214   0.687878  -0.059552  -0.031686  -0.007628  -0.001350
     3  H    0.369669  -0.059552   0.693166  -0.040664   0.007099  -0.000593
     4  C    0.318004  -0.031686  -0.040664   5.070359   0.368904   0.365130
     5  H   -0.030992  -0.007628   0.007099   0.368904   0.634964  -0.035218
     6  H   -0.027715  -0.001350  -0.000593   0.365130  -0.035218   0.625005
     7  C   -0.027813   0.005013  -0.011785   0.352907  -0.040325  -0.034627
     8  H   -0.000704   0.000131  -0.000117  -0.055907  -0.006349   0.006583
     9  H   -0.001371  -0.000201   0.006014  -0.045379   0.006043  -0.007403
    10  O    0.239170  -0.037728  -0.039152  -0.057100   0.001884   0.002960
    11  H   -0.022942  -0.003763  -0.005130   0.006239  -0.000085  -0.000288
    12  O    0.003318  -0.000066   0.000017  -0.042312  -0.000960   0.003490
    13  H   -0.000057   0.000002   0.000021  -0.004563   0.005329  -0.000835
               7          8          9         10         11         12
     1  C   -0.027813  -0.000704  -0.001371   0.239170  -0.022942   0.003318
     2  H    0.005013   0.000131  -0.000201  -0.037728  -0.003763  -0.000066
     3  H   -0.011785  -0.000117   0.006014  -0.039152  -0.005130   0.000017
     4  C    0.352907  -0.055907  -0.045379  -0.057100   0.006239  -0.042312
     5  H   -0.040325  -0.006349   0.006043   0.001884  -0.000085  -0.000960
     6  H   -0.034627   0.006583  -0.007403   0.002960  -0.000288   0.003490
     7  C    4.717300   0.379929   0.384963  -0.001029   0.000320   0.248938
     8  H    0.379929   0.646601  -0.044060   0.009352  -0.000352  -0.032582
     9  H    0.384963  -0.044060   0.633310  -0.000260  -0.000032  -0.038256
    10  O   -0.001029   0.009352  -0.000260   8.139238   0.280571   0.000017
    11  H    0.000320  -0.000352  -0.000032   0.280571   0.437871   0.000001
    12  O    0.248938  -0.032582  -0.038256   0.000017   0.000001   8.117516
    13  H   -0.034803  -0.007404   0.007973   0.000007  -0.000001   0.284916
              13
     1  C   -0.000057
     2  H    0.000002
     3  H    0.000021
     4  C   -0.004563
     5  H    0.005329
     6  H   -0.000835
     7  C   -0.034803
     8  H   -0.007404
     9  H    0.007973
    10  O    0.000007
    11  H   -0.000001
    12  O    0.284916
    13  H    0.448228
 Mulliken charges:
               1
     1  C    0.046632
     2  H    0.082736
     3  H    0.081008
     4  C   -0.203931
     5  H    0.097335
     6  H    0.104861
     7  C    0.061013
     8  H    0.104880
     9  H    0.098658
    10  O   -0.537932
    11  H    0.307590
    12  O   -0.544037
    13  H    0.301187
 Sum of Mulliken charges =   0.00000
 Mulliken charges with hydrogens summed into heavy atoms:
               1
     1  C    0.210376
     4  C   -0.001735
     7  C    0.264551
    10  O   -0.230342
    12  O   -0.242850
 Electronic spatial extent (au):  <R**2>=            558.6953
 Charge=              0.0000 electrons
 Dipole moment (field-independent basis, Debye):
    X=              2.1885    Y=              0.4451    Z=             -0.1793  Tot=              2.2404
 Quadrupole moment (field-independent basis, Debye-Ang):
   XX=            -30.5808   YY=            -31.6482   ZZ=            -29.4297
   XY=              0.8317   XZ=              5.2494   YZ=             -0.1015
 Traceless Quadrupole moment (field-independent basis, Debye-Ang):
   XX=             -0.0279   YY=             -1.0953   ZZ=              1.1232
   XY=              0.8317   XZ=              5.2494   YZ=             -0.1015
 Octapole moment (field-independent basis, Debye-Ang**2):
  XXX=             34.3476  YYY=             -3.4171  ZZZ=             -2.7430  XYY=              0.6051
  XXY=             -6.7770  XXZ=             -5.1715  XZZ=             -6.2427  YZZ=             -1.6072
  YYZ=             -0.2401  XYZ=             -3.0010
 Hexadecapole moment (field-independent basis, Debye-Ang**3):
 XXXX=           -447.7097 YYYY=           -108.2444 ZZZZ=            -62.2953 XXXY=            -22.0970
 XXXZ=             33.6268 YYYX=             -6.2624 YYYZ=              1.3472 ZZZX=              6.1673
 ZZZY=              1.2022 XXYY=            -95.4019 XXZZ=            -82.5806 YYZZ=            -30.2780
 XXYZ=              0.0557 YYXZ=              1.3174 ZZXY=              0.4120
 N-N= 1.875657257187D+02 E-N=-1.005891836289D+03  KE= 2.671938191774D+02
 1\1\GINC-EXADE5\Scan\RB3LYP\6-31G(d,p)\C3H8O2\APINTO\10-Nov-2025\0\\# 
 opt=modredundant b3lyp/6-31g(d,p) scf=tight\\Title Card Required\\0,1\
 C,1.4529964147,-0.0637528909,-0.1209910162\H,2.0808999476,-0.839620118
 4,-0.5863020242\H,1.7437658546,0.9021842624,-0.5666615724\C,-0.0135399
 362,-0.3463716561,-0.4202255327\H,-0.2819554709,-1.3073916397,0.039290
 4676\H,-0.1462080361,-0.4576318654,-1.5028834782\C,-0.9585707755,0.745
 0501778,0.0881072637\H,-0.8227946184,0.8810767733,1.1693623999\H,-0.71
 6162852,1.6996148753,-0.3930376663\O,1.622123324,-0.0462090866,1.29461
 28272\H,2.539558087,0.185638095,1.4849931617\O,-2.3190273014,0.4837016
 398,-0.2426415675\H,-2.5934586372,-0.2949955664,0.2591117373\\Version=
 ES64L-G09RevD.01\State=1-A\HF=-269.5707622,-269.5706084,-269.5701813,-
 269.5695369,-269.5687371,-269.5678722,-269.5670449,-269.5663278,-269.5
 658217,-269.5655622,-269.565556,-269.5657967,-269.5662257,-269.5667881
 ,-269.5674242,-269.5680551,-269.568608,-269.5690373,-269.5693209,-269.
 5694383,-269.5693687,-269.569108,-269.5686788,-269.5681186,-269.567464
 7,-269.5667633,-269.5660722,-269.5654697,-269.5650445,-269.564845,-269
 .5648882,-269.5652091,-269.5657708,-269.5665293,-269.567395,-269.56828
 34,-269.5691028,-269.5697683,-269.5702155,-269.5703856,-269.5702547,-2
 69.569823,-269.5691131,-269.568177,-269.5670963,-269.5659705,-269.5648
 993,-269.563989,-269.563338,-269.5630147,-269.5630514,-269.563445,-269
 .5641566,-269.5651166,-269.5662244,-269.5673756,-269.5684754,-269.5694
 298,-269.5701601,-269.5706127,-269.5707621\RMSD=3.848e-09,7.728e-09,9.
 372e-09,8.704e-09,9.899e-09,7.459e-09,3.243e-09,2.250e-09,3.732e-09,4.
 019e-09,3.814e-09,3.494e-09,3.303e-09,3.418e-09,8.269e-09,7.345e-09,3.
 853e-09,3.049e-09,9.975e-09,7.670e-09,2.987e-09,7.784e-09,4.331e-09,6.
 623e-09,9.008e-09,9.914e-09,3.105e-09,4.067e-09,2.285e-09,3.454e-09,3.
 274e-09,2.541e-09,6.534e-09,5.863e-09,5.865e-09,3.661e-09,4.898e-09,5.
 625e-09,2.972e-09,7.135e-09,2.491e-09,8.621e-09,6.990e-09,6.252e-09,7.
 754e-09,4.833e-09,7.772e-09,7.396e-09,2.387e-09,6.175e-09,5.590e-09,6.
 711e-09,8.456e-09,3.895e-09,4.618e-09,6.533e-09,3.977e-09,9.051e-09,6.
 818e-09,9.572e-09,6.691e-09\PG=C01 [X(C3H8O2)]\\@


 THE CHYMISTS ARE A STRANGE CLASS OF MORTALS IMPELLED
 BY AN ALMOST INSANE IMPULSE TO SEEK THEIR PLEASURE
 AMONG SMOKE AND VAPOR, SOOT AND FLAME, POISONS AND
 POVERTY; YET AMONG ALL THESE EVILS I SEEM TO LIVE
 SO SWEETLY, THAT I MAY DIE IF I WOULD CHANGE PLACES
 WITH THE PERSIAN KING.
   --  JOHANN JOACHIM BECHER, 1635-1682
 ACTA LABORATORII CHYMICA MONACENSIS, 1669
 Job cpu time:       0 days  0 hours 16 minutes  9.1 seconds.
 File lengths (MBytes):  RWF=     13 Int=      0 D2E=      0 Chk=      6 Scr=      1
 Normal termination of Gaussian 09 at Mon Nov 10 19:14:20 2025.
