13
 Scan point 1 scf energy: -269.570762173
C	1.398173     0.527201     0.224414
H	2.014407     1.352943     -0.164389
H	1.443175     0.576623     1.325207
C	-0.042246     0.702646     -0.238927
H	-0.063193     0.641680     -1.335581
H	-0.390465     1.705335     0.035708
C	-1.000113     -0.336181     0.349295
H	-0.652739     -1.347228     0.097977
H	-1.007762     -0.256929     1.442519
O	1.867182     -0.732377     -0.251337
H	2.761126     -0.867581     0.086688
O	-2.348139     -0.126141     -0.059611
H	-2.391780     -0.298698     -1.009228
13
 Scan point 2 scf energy: -269.570608393
C	1.395611     0.516543     0.233540
H	2.001841     1.377203     -0.089950
H	1.419396     0.496965     1.335784
C	-0.038622     0.690981     -0.249882
H	-0.045266     0.601207     -1.344372
H	-0.382864     1.703010     -0.005863
C	-1.010046     -0.320518     0.362640
H	-0.667369     -1.342476     0.148098
H	-1.025474     -0.204401     1.452383
O	1.901175     -0.698283     -0.316116
H	2.783069     -0.848831     0.046407
O	-2.353250     -0.115900     -0.062536
H	-2.390575     -0.314208     -1.007398
13
 Scan point 3 scf energy: -269.570181278
C	1.393929     0.504534     0.242079
H	1.986684     1.396485     -0.014562
H	1.399263     0.415397     1.340940
C	-0.035037     0.677496     -0.260002
H	-0.028940     0.558151     -1.351195
H	-0.375267     1.697942     -0.047403
C	-1.021219     -0.304752     0.375815
H	-0.686545     -1.337002     0.198123
H	-1.043900     -0.152106     1.460860
O	1.938692     -0.659388     -0.376917
H	2.809089     -0.824885     0.006487
O	-2.359200     -0.102944     -0.066150
H	-2.389923     -0.327635     -1.005341
13
 Scan point 4 scf energy: -269.569536932
C	1.392530     0.490057     0.250916
H	1.969683     1.409138     0.063511
H	1.380702     0.331632     1.341753
C	-0.031726     0.662446     -0.269936
H	-0.014218     0.511632     -1.356743
H	-0.366246     1.691299     -0.091365
C	-1.033783     -0.288060     0.388492
H	-0.707017     -1.329628     0.247993
H	-1.063004     -0.100208     1.467629
O	1.977417     -0.617537     -0.431390
H	2.840726     -0.792838     -0.036296
O	-2.365882     -0.088845     -0.069320
H	-2.391555     -0.337796     -1.002510
13
 Scan point 5 scf energy: -269.568737082
C	1.391548     0.473963     0.258893
H	1.949400     1.416108     0.141915
H	1.365714     0.245724     1.337004
C	-0.028690     0.645077     -0.278874
H	-0.002411     0.459849     -1.359908
H	-0.357012     1.681396     -0.136850
C	-1.046895     -0.271961     0.401999
H	-0.732197     -1.321981     0.298278
H	-1.083009     -0.048830     1.474098
O	2.018250     -0.572471     -0.481349
H	2.877486     -0.751915     -0.079048
O	-2.373002     -0.072720     -0.072673
H	-2.391556     -0.340946     -1.000751
13
 Scan point 6 scf energy: -269.567872209
C	1.390598     0.455444     0.266768
H	1.927512     1.415636     0.222832
H	1.351435     0.156938     1.327308
C	-0.025752     0.627440     -0.288175
H	0.007742     0.406505     -1.362047
H	-0.344823     1.670897     -0.184025
C	-1.060553     -0.254418     0.414168
H	-0.757882     -1.311508     0.346856
H	-1.100614     0.002988     1.478391
O	2.058391     -0.524950     -0.525739
H	2.917065     -0.703011     -0.121428
O	-2.380472     -0.055367     -0.075265
H	-2.395021     -0.345301     -0.996910
13
 Scan point 7 scf energy: -269.567044856
C	1.389660     0.436055     0.274266
H	1.903370     1.409219     0.305522
H	1.340476     0.066249     1.311761
C	-0.022700     0.609067     -0.296320
H	0.017315     0.348324     -1.360834
H	-0.332248     1.658454     -0.234001
C	-1.073606     -0.236036     0.426555
H	-0.785118     -1.299279     0.394684
H	-1.118465     0.053608     1.482272
O	2.096814     -0.474136     -0.566583
H	2.957323     -0.647277     -0.163756
O	-2.387370     -0.035037     -0.078319
H	-2.397826     -0.347918     -0.992513
13
 Scan point 8 scf energy: -269.566327754
C	1.388496     0.414470     0.280513
H	1.877029     1.394819     0.388747
H	1.330069     -0.026471     1.289560
C	-0.019992     0.589915     -0.305335
H	0.022634     0.287934     -1.358720
H	-0.317217     1.644171     -0.285824
C	-1.086474     -0.217371     0.438249
H	-0.811483     -1.284905     0.440738
H	-1.133105     0.104626     1.484500
O	2.134954     -0.421552     -0.602012
H	2.998956     -0.582864     -0.201553
O	-2.394604     -0.015433     -0.079067
H	-2.401637     -0.346048     -0.987061
13
 Scan point 9 scf energy: -269.565821691
C	1.386841     0.391758     0.285771
H	1.848003     1.373649     0.471348
H	1.321792     -0.119285     1.261139
C	-0.016992     0.570152     -0.313966
H	0.026717     0.225361     -1.354090
H	-0.299963     1.627941     -0.338664
C	-1.098120     -0.197963     0.449584
H	-0.838093     -1.268916     0.485371
H	-1.145141     0.154569     1.485988
O	2.170661     -0.366503     -0.633487
H	3.038744     -0.512281     -0.235756
O	-2.400883     0.006058     -0.079739
H	-2.405939     -0.343248     -0.980765
13
 Scan point 10 scf energy: -269.565562203
C	1.385275     0.368253     0.290079
H	1.816935     1.345999     0.552042
H	1.317295     -0.210890     1.226533
C	-0.013641     0.549631     -0.321893
H	0.029331     0.161578     -1.346845
H	-0.281165     1.609144     -0.391377
C	-1.109279     -0.178365     0.460718
H	-0.864951     -1.251539     0.528272
H	-1.156043     0.204104     1.486543
O	2.204210     -0.308795     -0.661324
H	3.076086     -0.437447     -0.265850
O	-2.406525     0.028679     -0.080230
H	-2.409904     -0.339059     -0.973934
13
 Scan point 11 scf energy: -269.565556025
C	1.383643     0.343928     0.292871
H	1.783676     1.312236     0.629373
H	1.315676     -0.300101     1.186447
C	-0.010281     0.527423     -0.329190
H	0.029805     0.097384     -1.337719
H	-0.260333     1.587192     -0.442761
C	-1.119187     -0.158593     0.471435
H	-0.891544     -1.233050     0.571261
H	-1.164707     0.252751     1.486308
O	2.234798     -0.248899     -0.685301
H	3.109934     -0.358507     -0.291301
O	-2.410955     0.051798     -0.080914
H	-2.412900     -0.332270     -0.967773
13
 Scan point 12 scf energy: -269.565796726
C	1.381198     0.318983     0.294625
H	1.749234     1.271862     0.703843
H	1.315049     -0.386914     1.140434
C	-0.006208     0.506304     -0.337974
H	0.029715     0.036564     -1.329014
H	-0.238072     1.564789     -0.492479
C	-1.127400     -0.138140     0.480922
H	-0.915639     -1.212587     0.610423
H	-1.169068     0.301883     1.483841
O	2.263072     -0.187236     -0.704761
H	3.139434     -0.279652     -0.309103
O	-2.414914     0.074741     -0.080042
H	-2.418775     -0.329305     -0.957980
13
 Scan point 13 scf energy: -269.56622571
C	1.379804     0.292941     0.295107
H	1.714040     1.226282     0.772862
H	1.320050     -0.469543     1.091132
C	-0.002133     0.482684     -0.344599
H	0.027895     -0.023125     -1.318454
H	-0.213970     1.538857     -0.538661
C	-1.135257     -0.118148     0.490036
H	-0.942109     -1.191804     0.651172
H	-1.173392     0.350501     1.480200
O	2.288136     -0.123741     -0.720989
H	3.165622     -0.197662     -0.324084
O	-2.417583     0.099148     -0.081308
H	-2.423477     -0.325095     -0.949681
13
 Scan point 14 scf energy: -269.56678813
C	1.378132     0.266790     0.294293
H	1.678360     1.176156     0.836791
H	1.328495     -0.547705     1.037929
C	0.002003     0.458756     -0.351949
H	0.024397     -0.079874     -1.308593
H	-0.189864     1.511597     -0.581409
C	-1.141859     -0.098153     0.498319
H	-0.966962     -1.169856     0.690493
H	-1.174396     0.398859     1.474793
O	2.310265     -0.058756     -0.733221
H	3.186908     -0.117724     -0.332120
O	-2.419440     0.122628     -0.082102
H	-2.428415     -0.321425     -0.940489
13
 Scan point 15 scf energy: -269.567424197
C	1.376939     0.240586     0.292030
H	1.642152     1.122061     0.895875
H	1.339934     -0.620997     0.981366
C	0.005863     0.434371     -0.359541
H	0.019494     -0.132871     -1.299980
H	-0.165955     1.483437     -0.620410
C	-1.146955     -0.078652     0.505967
H	-0.990629     -1.147049     0.729507
H	-1.172791     0.447616     1.467007
O	2.329456     0.008290     -0.741016
H	3.204158     -0.041545     -0.334763
O	-2.420622     0.145379     -0.082978
H	-2.433417     -0.319333     -0.930331
13
 Scan point 16 scf energy: -269.56805511
C	1.375634     0.214648     0.289123
H	1.607311     1.064474     0.949756
H	1.355939     -0.689440     0.922173
C	0.009519     0.409541     -0.366804
H	0.013633     -0.181851     -1.292660
H	-0.142282     1.454699     -0.654832
C	-1.151515     -0.059112     0.512241
H	-1.013531     -1.122747     0.768808
H	-1.169558     0.496199     1.457103
O	2.345155     0.076952     -0.745316
H	3.216898     0.030448     -0.332429
O	-2.420399     0.167774     -0.085236
H	-2.439176     -0.320292     -0.919192
13
 Scan point 17 scf energy: -269.568607971
C	1.374944     0.189843     0.284541
H	1.571134     1.004575     0.999460
H	1.374580     -0.751577     0.861004
C	0.012689     0.385642     -0.375505
H	0.006194     -0.226414     -1.287904
H	-0.119850     1.426821     -0.686848
C	-1.153760     -0.039805     0.517422
H	-1.033409     -1.097365     0.805771
H	-1.163015     0.544189     1.444806
O	2.358344     0.148343     -0.743594
H	3.226510     0.092903     -0.324551
O	-2.420000     0.188836     -0.086805
H	-2.446734     -0.324696     -0.905062
13
 Scan point 18 scf energy: -269.569037347
C	1.374907     0.165284     0.279720
H	1.537209     0.941639     1.044469
H	1.397686     -0.808813     0.797772
C	0.015783     0.360888     -0.383239
H	-0.002635     -0.269270     -1.283231
H	-0.097843     1.397742     -0.716357
C	-1.156493     -0.020658     0.521810
H	-1.053440     -1.070705     0.842843
H	-1.156013     0.591591     1.430757
O	2.368879     0.220148     -0.737774
H	3.233878     0.153481     -0.314018
O	-2.419342     0.208974     -0.089010
H	-2.454951     -0.329008     -0.891007
13
 Scan point 19 scf energy: -269.569320879
C	1.374709     0.141273     0.273579
H	1.502517     0.875638     1.085481
H	1.422526     -0.860688     0.733018
C	0.018279     0.336691     -0.392710
H	-0.013526     -0.309365     -1.280875
H	-0.077345     1.369265     -0.744676
C	-1.157300     -0.001651     0.525015
H	-1.070240     -1.042708     0.878727
H	-1.145130     0.638587     1.414252
O	2.376855     0.292206     -0.725544
H	3.238875     0.209128     -0.298735
O	-2.418143     0.227928     -0.090353
H	-2.464452     -0.335012     -0.874444
13
 Scan point 20 scf energy: -269.569438313
C	1.374900     0.118219     0.267167
H	1.469378     0.806909     1.122958
H	1.450349     -0.907036     0.667026
C	0.020377     0.312997     -0.402337
H	-0.025191     -0.347351     -1.279133
H	-0.057998     1.341025     -0.771899
C	-1.157482     0.017431     0.527121
H	-1.085109     -1.013411     0.912910
H	-1.133006     0.684844     1.395648
O	2.381879     0.364872     -0.707488
H	3.241835     0.259576     -0.281431
O	-2.416591     0.246372     -0.092216
H	-2.475717     -0.343154     -0.855593
13
 Scan point 21 scf energy: -269.569368681
C	1.375222     0.094984     0.259977
H	1.437366     0.735589     1.155588
H	1.480965     -0.948412     0.600631
C	0.021730     0.288345     -0.411925
H	-0.039401     -0.385858     -1.277070
H	-0.040587     1.311069     -0.799320
C	-1.156884     0.036003     0.529245
H	-1.098179     -0.983247     0.947313
H	-1.119310     0.729795     1.376254
O	2.383599     0.435418     -0.684439
H	3.242636     0.310685     -0.261815
O	-2.415017     0.263405     -0.092691
H	-2.484515     -0.346482     -0.839013
13
 Scan point 22 scf energy: -269.569108003
C	1.376634     0.072420     0.253484
H	1.409902     0.659984     1.186526
H	1.514883     -0.985016     0.532687
C	0.023052     0.264525     -0.420601
H	-0.051820     -0.422971     -1.273839
H	-0.022982     1.281516     -0.824981
C	-1.156682     0.055331     0.529654
H	-1.112026     -0.951140     0.979248
H	-1.105958     0.774631     1.354278
O	2.381401     0.505863     -0.656289
H	3.241584     0.359172     -0.243063
O	-2.413205     0.281682     -0.096061
H	-2.497158     -0.354704     -0.818308
13
 Scan point 23 scf energy: -269.568678825
C	1.378001     0.049246     0.245022
H	1.383030     0.580830     1.211951
H	1.549268     -1.017381     0.462842
C	0.024100     0.240393     -0.430546
H	-0.068259     -0.461101     -1.270402
H	-0.007956     1.250249     -0.854145
C	-1.154634     0.074839     0.529739
H	-1.122564     -0.918022     1.010157
H	-1.089530     0.818147     1.331566
O	2.377519     0.571869     -0.622901
H	3.238764     0.411913     -0.216726
O	-2.410536     0.299969     -0.097377
H	-2.509578     -0.359658     -0.796443
13
 Scan point 24 scf energy: -269.568118582
C	1.379964     0.025568     0.236489
H	1.360539     0.497321     1.233987
H	1.585884     -1.045459     0.391623
C	0.024355     0.215872     -0.440063
H	-0.084662     -0.500776     -1.264737
H	0.007307     1.217325     -0.883656
C	-1.152539     0.094590     0.529157
H	-1.132803     -0.883302     1.040121
H	-1.071893     0.861071     1.307402
O	2.368988     0.634779     -0.586380
H	3.232643     0.468338     -0.187873
O	-2.408244     0.318562     -0.098760
H	-2.521915     -0.362599     -0.774575
13
 Scan point 25 scf energy: -269.567464729
C	1.381939     0.002284     0.226169
H	1.340542     0.409899     1.251009
H	1.622225     -1.068774     0.317412
C	0.024187     0.191685     -0.450580
H	-0.102927     -0.541828     -1.257381
H	0.019068     1.182616     -0.917463
C	-1.148959     0.114873     0.528129
H	-1.139149     -0.847360     1.068454
H	-1.051672     0.903288     1.282068
O	2.358342     0.693749     -0.545467
H	3.223660     0.527085     -0.150441
O	-2.405200     0.337435     -0.098495
H	-2.534430     -0.363658     -0.750678
13
 Scan point 26 scf energy: -269.566763297
C	1.384175     -0.020925     0.215218
H	1.323562     0.320267     1.263222
H	1.660238     -1.086493     0.242238
C	0.023350     0.167709     -0.461209
H	-0.122339     -0.584379     -1.247365
H	0.031116     1.146002     -0.953375
C	-1.144377     0.135577     0.526579
H	-1.143182     -0.810775     1.094379
H	-1.030551     0.943978     1.256607
O	2.343809     0.749352     -0.501725
H	3.210677     0.586645     -0.108218
O	-2.402083     0.356873     -0.097515
H	-2.546768     -0.362538     -0.726101
13
 Scan point 27 scf energy: -269.566072214
C	1.386877     -0.043278     0.202765
H	1.310872     0.226390     1.270421
H	1.697958     -1.098671     0.163352
C	0.022464     0.144064     -0.471562
H	-0.141982     -0.628410     -1.233809
H	0.039020     1.107101     -0.992264
C	-1.139031     0.156695     0.524842
H	-1.145387     -0.772513     1.120091
H	-1.007394     0.984561     1.229791
O	2.326415     0.801098     -0.455001
H	3.193711     0.647472     -0.058649
O	-2.398030     0.376400     -0.096000
H	-2.557868     -0.359614     -0.701242
13
 Scan point 28 scf energy: -269.565469701
C	1.389553     -0.065517     0.189324
H	1.301691     0.130644     1.271908
H	1.736130     -1.104902     0.082865
C	0.020903     0.120764     -0.482065
H	-0.162296     -0.674069     -1.216467
H	0.047196     1.065466     -1.034488
C	-1.131844     0.178354     0.522520
H	-1.144446     -0.733872     1.143534
H	-0.983242     1.023774     1.202749
O	2.305275     0.848881     -0.406604
H	3.171104     0.709107     -0.001774
O	-2.393694     0.396799     -0.093213
H	-2.568704     -0.354136     -0.675556
13
 Scan point 29 scf energy: -269.565044473
C	1.392801     -0.086613     0.174685
H	1.296842     0.032442     1.267696
H	1.774284     -1.104373     0.000331
C	0.019632     0.097934     -0.491097
H	-0.182926     -0.720173     -1.194460
H	0.053261     1.021329     -1.077630
C	-1.124360     0.200483     0.520377
H	-1.142564     -0.694004     1.166421
H	-0.958546     1.062534     1.175486
O	2.280677     0.892835     -0.356578
H	3.143633     0.769117     0.059484
O	-2.388180     0.417178     -0.091036
H	-2.576930     -0.347396     -0.650945
13
 Scan point 30 scf energy: -269.564845013
C	1.395723     -0.106737     0.159540
H	1.295313     -0.065642     1.257647
H	1.811568     -1.096736     -0.082579
C	0.017915     0.075448     -0.499690
H	-0.202420     -0.766282     -1.169276
H	0.057850     0.975239     -1.121086
C	-1.115565     0.222677     0.517979
H	-1.137978     -0.653457     1.188419
H	-0.932983     1.100545     1.147280
O	2.252417     0.933204     -0.304577
H	3.111159     0.825104     0.124384
O	-2.382301     0.437102     -0.087997
H	-2.583073     -0.339174     -0.627309
13
 Scan point 31 scf energy: -269.564888176
C	1.399177     -0.125556     0.143539
H	1.299401     -0.163644     1.241691
H	1.847821     -1.082051     -0.165840
C	0.016706     0.053713     -0.506283
H	-0.220840     -0.811378     -1.139570
H	0.061322     0.927497     -1.163202
C	-1.106532     0.245248     0.515672
H	-1.132729     -0.612262     1.209572
H	-0.909450     1.138188     1.118650
O	2.221125     0.969728     -0.251263
H	3.074848     0.876030     0.190843
O	-2.375573     0.456664     -0.086402
H	-2.587652     -0.330883     -0.604670
13
 Scan point 32 scf energy: -269.565209106
C	1.401672     -0.142437     0.127343
H	1.303220     -0.259665     1.219776
H	1.881890     -1.059552     -0.247116
C	0.015741     0.032776     -0.513988
H	-0.236581     -0.854596     -1.110301
H	0.062942     0.879327     -1.205344
C	-1.095844     0.267650     0.511688
H	-1.123798     -0.569731     1.229437
H	-0.883167     1.175272     1.086912
O	2.187416     1.002712     -0.194006
H	3.035661     0.919319     0.260428
O	-2.368247     0.475209     -0.084595
H	-2.593279     -0.324992     -0.577498
13
 Scan point 33 scf energy: -269.56577081
C	1.404196     -0.158215     0.110421
H	1.310534     -0.352709     1.192066
H	1.914190     -1.031173     -0.325768
C	0.014747     0.012000     -0.520566
H	-0.251541     -0.896504     -1.078275
H	0.062772     0.830249     -1.245146
C	-1.084351     0.289862     0.507922
H	-1.112606     -0.526919     1.249015
H	-0.857390     1.211516     1.054223
O	2.150437     1.030946     -0.136117
H	2.992821     0.957381     0.330560
O	-2.360428     0.492535     -0.082172
H	-2.595756     -0.317675     -0.553428
13
 Scan point 34 scf energy: -269.566529335
C	1.406189     -0.172059     0.093910
H	1.319461     -0.441980     1.159639
H	1.944037     -0.995775     -0.400835
C	0.013900     -0.008244     -0.526723
H	-0.263537     -0.935619     -1.047526
H	0.060997     0.781957     -1.282063
C	-1.072293     0.311699     0.502885
H	-1.100521     -0.482658     1.267869
H	-0.831083     1.247053     1.018754
O	2.111539     1.055230     -0.075115
H	2.949959     0.986715     0.399222
O	-2.352458     0.508236     -0.080863
H	-2.598564     -0.313263     -0.526419
13
 Scan point 35 scf energy: -269.567394975
C	1.408257     -0.184599     0.077564
H	1.330648     -0.526436     1.123036
H	1.972112     -0.955574     -0.470674
C	0.013395     -0.028097     -0.532984
H	-0.273993     -0.972050     -1.017899
H	0.058271     0.735463     -1.315543
C	-1.059755     0.333140     0.496737
H	-1.086554     -0.437805     1.285390
H	-0.805507     1.281513     0.980931
O	2.070167     1.074674     -0.012013
H	2.906672     1.009049     0.465897
O	-2.343965     0.522614     -0.080859
H	-2.602122     -0.310601     -0.496849
13
 Scan point 36 scf energy: -269.568283442
C	1.410014     -0.195136     0.061699
H	1.343681     -0.606080     1.082800
H	1.997882     -0.909903     -0.535456
C	0.012543     -0.047533     -0.538766
H	-0.282142     -1.006255     -0.989697
H	0.052954     0.690155     -1.346345
C	-1.047194     0.353998     0.489675
H	-1.071499     -0.391770     1.302279
H	-0.780296     1.314893     0.940387
O	2.027799     1.089389     0.053583
H	2.865072     1.023866     0.529969
O	-2.336029     0.535043     -0.081042
H	-2.605159     -0.309373     -0.466350
13
 Scan point 37 scf energy: -269.569102828
C	1.411826     -0.204187     0.046796
H	1.359118     -0.680244     1.039994
H	2.021753     -0.860064     -0.594371
C	0.011385     -0.066699     -0.544098
H	-0.289931     -1.038057     -0.962663
H	0.045968     0.646886     -1.373602
C	-1.034816     0.374274     0.481962
H	-1.055785     -0.345115     1.318245
H	-0.756464     1.346792     0.898392
O	1.983943     1.098943     0.121349
H	2.825907     1.032384     0.589053
O	-2.328236     0.545648     -0.082197
H	-2.607042     -0.309268     -0.436125
13
 Scan point 38 scf energy: -269.569768306
C	1.413963     -0.210808     0.032521
H	1.376710     -0.749559     0.994158
H	2.043206     -0.805508     -0.648438
C	0.009953     -0.084665     -0.548061
H	-0.295430     -1.067861     -0.934796
H	0.035766     0.604807     -1.398501
C	-1.023717     0.394163     0.473676
H	-1.040447     -0.297634     1.333121
H	-0.735998     1.377678     0.854981
O	1.941722     1.103071     0.191822
H	2.792218     1.034060     0.643278
O	-2.321548     0.554125     -0.084580
H	-2.608772     -0.310575     -0.406446
13
 Scan point 39 scf energy: -269.570215505
C	1.416333     -0.216700     0.019836
H	1.397784     -0.814279     0.946805
H	2.063224     -0.747535     -0.696406
C	0.008489     -0.102345     -0.551411
H	-0.301773     -1.094965     -0.909194
H	0.025797     0.564506     -1.420262
C	-1.013175     0.413495     0.464326
H	-1.025897     -0.249621     1.346204
H	-0.717089     1.406839     0.810443
O	1.898738     1.101299     0.264445
H	2.761524     1.032284     0.691752
O	-2.315022     0.561287     -0.089026
H	-2.611305     -0.312973     -0.374776
13
 Scan point 40 scf energy: -269.570385577
C	1.419590     -0.220796     0.008060
H	1.421003     -0.874772     0.896440
H	2.080554     -0.685634     -0.740207
C	0.006601     -0.118842     -0.553081
H	-0.306703     -1.120559     -0.880988
H	0.012875     0.525386     -1.439260
C	-1.004547     0.432463     0.454832
H	-1.013143     -0.200543     1.358677
H	-0.702633     1.435099     0.765657
O	1.859280     1.092979     0.339160
H	2.737329     1.026427     0.734442
O	-2.309812     0.566276     -0.094805
H	-2.612769     -0.316189     -0.346193
13
 Scan point 41 scf energy: -269.570254656
C	1.423105     -0.223980     -0.003629
H	1.449599     -0.930901     0.843196
H	2.095392     -0.621392     -0.780117
C	0.004456     -0.135048     -0.553397
H	-0.313078     -1.144025     -0.853336
H	-0.000021     0.485886     -1.456549
C	-0.996476     0.451465     0.444985
H	-1.000463     -0.150266     1.369809
H	-0.689952     1.462720     0.718956
O	1.821598     1.078567     0.412437
H	2.712684     1.018052     0.778257
O	-2.305544     0.570010     -0.100541
H	-2.613674     -0.319795     -0.317335
13
 Scan point 42 scf energy: -269.569822965
C	1.427789     -0.225907     -0.015189
H	1.479372     -0.982442     0.786266
H	2.108554     -0.553352     -0.816146
C	0.002127     -0.150314     -0.553686
H	-0.318822     -1.166366     -0.823496
H	-0.014985     0.446625     -1.472835
C	-0.989610     0.470336     0.433874
H	-0.989316     -0.098577     1.379073
H	-0.679528     1.489228     0.671405
O	1.787988     1.057857     0.485684
H	2.691074     1.006415     0.822155
O	-2.301796     0.572164     -0.108338
H	-2.615221     -0.324376     -0.286033
13
 Scan point 43 scf energy: -269.569113082
C	1.432970     -0.226545     -0.026676
H	1.513610     -1.029029     0.726114
H	2.118408     -0.482878     -0.849024
C	-0.000420     -0.164851     -0.552165
H	-0.325712     -1.186736     -0.791840
H	-0.029967     0.406606     -1.487284
C	-0.983978     0.489434     0.422448
H	-0.979029     -0.045542     1.386907
H	-0.672446     1.515414     0.622810
O	1.758206     1.031628     0.556703
H	2.671079     0.990910     0.867144
O	-2.299277     0.572531     -0.116563
H	-2.615818     -0.329649     -0.255839
13
 Scan point 44 scf energy: -269.568176968
C	1.438598     -0.225876     -0.038460
H	1.550991     -1.070522     0.662029
H	2.125770     -0.408688     -0.878539
C	-0.003432     -0.178808     -0.550125
H	-0.333113     -1.206164     -0.756833
H	-0.046500     0.364524     -1.501386
C	-0.979029     0.508676     0.410437
H	-0.968431     0.008869     1.393029
H	-0.666855     1.540895     0.572784
O	1.731483     1.000560     0.624826
H	2.651192     0.970818     0.915630
O	-2.297628     0.571809     -0.123940
H	-2.615419     -0.334798     -0.226717
13
 Scan point 45 scf energy: -269.567096259
C	1.444562     -0.224145     -0.049817
H	1.591922     -1.107118     0.594203
H	2.129336     -0.330842     -0.904576
C	-0.006365     -0.192090     -0.547050
H	-0.341110     -1.223945     -0.718691
H	-0.062065     0.320743     -1.514381
C	-0.975093     0.527950     0.397419
H	-0.958542     0.064355     1.396944
H	-0.663803     1.565615     0.521389
O	1.707902     0.964774     0.690712
H	2.632785     0.946160     0.965546
O	-2.296917     0.569900     -0.131865
H	-2.614987     -0.340064     -0.197097
13
 Scan point 46 scf energy: -269.565970466
C	1.450595     -0.220712     -0.061243
H	1.634309     -1.137777     0.522360
H	2.130250     -0.249292     -0.926051
C	-0.009302     -0.204333     -0.543444
H	-0.348712     -1.240169     -0.676412
H	-0.078884     0.274025     -1.527267
C	-0.971804     0.547471     0.383572
H	-0.948561     0.120383     1.398328
H	-0.662727     1.589648     0.469010
O	1.687383     0.924941     0.753556
H	2.615481     0.915337     1.017666
O	-2.296743     0.567020     -0.139696
H	-2.613661     -0.345248     -0.167645
13
 Scan point 47 scf energy: -269.564899272
C	1.456324     -0.216678     -0.071292
H	1.678013     -1.163204     0.447641
H	2.126314     -0.164461     -0.942249
C	-0.011868     -0.216375     -0.539412
H	-0.356425     -1.254736     -0.631598
H	-0.092349     0.225799     -1.538816
C	-0.969166     0.566388     0.368244
H	-0.938731     0.175819     1.396707
H	-0.663193     1.612050     0.415970
O	1.668768     0.880350     0.815035
H	2.600103     0.882026     1.067610
O	-2.297211     0.563673     -0.148049
H	-2.612954     -0.349357     -0.137055
13
 Scan point 48 scf energy: -269.563988951
C	1.461379     -0.211143     -0.081098
H	1.721634     -1.182289     0.368952
H	2.119796     -0.076520     -0.952122
C	-0.013978     -0.227618     -0.535177
H	-0.362819     -1.267484     -0.583532
H	-0.105694     0.174040     -1.550381
C	-0.966492     0.585127     0.351868
H	-0.928094     0.230702     1.392210
H	-0.664727     1.633352     0.361985
O	1.651576     0.832061     0.873318
H	2.584888     0.843432     1.118129
O	-2.297551     0.559823     -0.156345
H	-2.612292     -0.352190     -0.105072
13
 Scan point 49 scf energy: -269.563338033
C	1.465317     -0.204826     -0.089380
H	1.764752     -1.195032     0.287984
H	2.106998     0.013302     -0.955940
C	-0.016177     -0.238693     -0.530107
H	-0.368621     -1.278526     -0.532430
H	-0.116516     0.120330     -1.559968
C	-0.964246     0.603165     0.334926
H	-0.916703     0.284711     1.385653
H	-0.666987     1.652820     0.307611
O	1.636494     0.779467     0.929620
H	2.571994     0.802732     1.165031
O	-2.298521     0.556140     -0.163421
H	-2.610158     -0.354296     -0.076845
13
 Scan point 50 scf energy: -269.563014655
C	1.468344     -0.197422     -0.097488
H	1.806558     -1.200334     0.204958
H	2.090818     0.103774     -0.953381
C	-0.017633     -0.249261     -0.524599
H	-0.372601     -1.287475     -0.479985
H	-0.125506     0.065011     -1.568019
C	-0.961768     0.620612     0.317058
H	-0.904701     0.338153     1.376760
H	-0.669947     1.670631     0.251940
O	1.622213     0.723554     0.981927
H	2.558976     0.757498     1.210878
O	-2.299269     0.551895     -0.170387
H	-2.607858     -0.355344     -0.046928
13
 Scan point 51 scf energy: -269.563051354
C	1.470196     -0.189106     -0.104463
H	1.846358     -1.198452     0.121226
H	2.069685     0.193821     -0.944190
C	-0.018616     -0.259519     -0.518707
H	-0.374404     -1.294688     -0.426871
H	-0.131575     0.009136     -1.573953
C	-0.959453     0.637029     0.298204
H	-0.892785     0.390285     1.365504
H	-0.673422     1.686248     0.195679
O	1.609781     0.663864     1.031397
H	2.547810     0.710207     1.252903
O	-2.300036     0.547372     -0.177475
H	-2.605913     -0.354906     -0.016519
13
 Scan point 52 scf energy: -269.563445048
C	1.471049     -0.179457     -0.111075
H	1.883444     -1.188785     0.037171
H	2.044695     0.282334     -0.929431
C	-0.018865     -0.269150     -0.511942
H	-0.372832     -1.300051     -0.372976
H	-0.136779     -0.047059     -1.577302
C	-0.957254     0.652802     0.278712
H	-0.881295     0.442561     1.352541
H	-0.677514     1.700004     0.138143
O	1.599262     0.601798     1.076354
H	2.537839     0.658160     1.293246
O	-2.300907     0.542157     -0.184199
H	-2.603219     -0.354022     0.013494
13
 Scan point 53 scf energy: -269.564156605
C	1.470730     -0.168648     -0.116592
H	1.917858     -1.171507     -0.045217
H	2.015590     0.368533     -0.908686
C	-0.018701     -0.278903     -0.504893
H	-0.369182     -1.304290     -0.320827
H	-0.139397     -0.102024     -1.578329
C	-0.955133     0.667276     0.258237
H	-0.870092     0.493826     1.337440
H	-0.681111     1.710826     0.079393
O	1.590459     0.537546     1.117548
H	2.529369     0.603830     1.330297
O	-2.301757     0.536351     -0.190878
H	-2.601007     -0.351522     0.045242
13
 Scan point 54 scf energy: -269.565116646
C	1.469700     -0.156636     -0.121696
H	1.948755     -1.147194     -0.125389
H	1.984407     0.451335     -0.882814
C	-0.017976     -0.288272     -0.497262
H	-0.362125     -1.307345     -0.269799
H	-0.141508     -0.155409     -1.576858
C	-0.953191     0.680725     0.237309
H	-0.859125     0.544931     1.320833
H	-0.684791     1.718965     0.019579
O	1.582965     0.471490     1.154121
H	2.521748     0.546769     1.364549
O	-2.302731     0.529999     -0.196981
H	-2.598500     -0.348066     0.077143
13
 Scan point 55 scf energy: -269.566224371
C	1.467560     -0.143661     -0.125301
H	1.976432     -1.116380     -0.201802
H	1.950315     0.529943     -0.851922
C	-0.017384     -0.297747     -0.488781
H	-0.353741     -1.309933     -0.221259
H	-0.142102     -0.205998     -1.572677
C	-0.951695     0.692908     0.216183
H	-0.848816     0.595488     1.302909
H	-0.688223     1.723894     -0.040965
O	1.578209     0.403778     1.186983
H	2.516869     0.489316     1.394165
O	-2.304030     0.523587     -0.202289