 Entering Gaussian System, Link 0=g09
 Input=xaa.com
 Output=xaa.log
 Initial command:
 /opt/programs/gaussian/g09/d_pgi133/l1.exe "/scratch/users/apinto/lixo/Gau-1261839.inp" -scrdir="/scratch/users/apinto/lixo/"
 Entering Link 1 = /opt/programs/gaussian/g09/d_pgi133/l1.exe PID=   1261843.
  
 Copyright (c) 1988,1990,1992,1993,1995,1998,2003,2009,2013,
            Gaussian, Inc.  All Rights Reserved.
  
 This is part of the Gaussian(R) 09 program.  It is based on
 the Gaussian(R) 03 system (copyright 2003, Gaussian, Inc.),
 the Gaussian(R) 98 system (copyright 1998, Gaussian, Inc.),
 the Gaussian(R) 94 system (copyright 1995, Gaussian, Inc.),
 the Gaussian 92(TM) system (copyright 1992, Gaussian, Inc.),
 the Gaussian 90(TM) system (copyright 1990, Gaussian, Inc.),
 the Gaussian 88(TM) system (copyright 1988, Gaussian, Inc.),
 the Gaussian 86(TM) system (copyright 1986, Carnegie Mellon
 University), and the Gaussian 82(TM) system (copyright 1983,
 Carnegie Mellon University). Gaussian is a federally registered
 trademark of Gaussian, Inc.
  
 This software contains proprietary and confidential information,
 including trade secrets, belonging to Gaussian, Inc.
  
 This software is provided under written license and may be
 used, copied, transmitted, or stored only in accord with that
 written license.
  
 The following legend is applicable only to US Government
 contracts under FAR:
  
                    RESTRICTED RIGHTS LEGEND
  
 Use, reproduction and disclosure by the US Government is
 subject to restrictions as set forth in subparagraphs (a)
 and (c) of the Commercial Computer Software - Restricted
 Rights clause in FAR 52.227-19.
  
 Gaussian, Inc.
 340 Quinnipiac St., Bldg. 40, Wallingford CT 06492
  
  
 ---------------------------------------------------------------
 Warning -- This program may not be used in any manner that
 competes with the business of Gaussian, Inc. or will provide
 assistance to any competitor of Gaussian, Inc.  The licensee
 of this program is prohibited from giving any competitor of
 Gaussian, Inc. access to this program.  By using this program,
 the user acknowledges that Gaussian, Inc. is engaged in the
 business of creating and licensing software in the field of
 computational chemistry and represents and warrants to the
 licensee that it is not a competitor of Gaussian, Inc. and that
 it will not use this program in any manner prohibited above.
 ---------------------------------------------------------------
  

 Cite this work as:
 Gaussian 09, Revision D.01,
 M. J. Frisch, G. W. Trucks, H. B. Schlegel, G. E. Scuseria, 
 M. A. Robb, J. R. Cheeseman, G. Scalmani, V. Barone, B. Mennucci, 
 G. A. Petersson, H. Nakatsuji, M. Caricato, X. Li, H. P. Hratchian, 
 A. F. Izmaylov, J. Bloino, G. Zheng, J. L. Sonnenberg, M. Hada, 
 M. Ehara, K. Toyota, R. Fukuda, J. Hasegawa, M. Ishida, T. Nakajima, 
 Y. Honda, O. Kitao, H. Nakai, T. Vreven, J. A. Montgomery, Jr., 
 J. E. Peralta, F. Ogliaro, M. Bearpark, J. J. Heyd, E. Brothers, 
 K. N. Kudin, V. N. Staroverov, T. Keith, R. Kobayashi, J. Normand, 
 K. Raghavachari, A. Rendell, J. C. Burant, S. S. Iyengar, J. Tomasi, 
 M. Cossi, N. Rega, J. M. Millam, M. Klene, J. E. Knox, J. B. Cross, 
 V. Bakken, C. Adamo, J. Jaramillo, R. Gomperts, R. E. Stratmann, 
 O. Yazyev, A. J. Austin, R. Cammi, C. Pomelli, J. W. Ochterski, 
 R. L. Martin, K. Morokuma, V. G. Zakrzewski, G. A. Voth, 
 P. Salvador, J. J. Dannenberg, S. Dapprich, A. D. Daniels, 
 O. Farkas, J. B. Foresman, J. V. Ortiz, J. Cioslowski, 
 and D. J. Fox, Gaussian, Inc., Wallingford CT, 2013.
 
 ******************************************
 Gaussian 09:  ES64L-G09RevD.01 24-Apr-2013
                10-Nov-2025 
 ******************************************
 ----------------------
 #p M062X/6-311++G(d,p)
 ----------------------
 1/38=1/1;
 2/12=2,17=6,18=5,40=1/2;
 3/5=4,6=6,7=1111,11=2,16=1,25=1,30=1,74=-55/1,2,3;
 4//1;
 5/5=2,38=5/2;
 6/7=2,8=2,9=2,10=2,28=1/1;
 99/5=1,9=1/99;
 Leave Link    1 at Mon Nov 10 19:32:15 2025, MaxMem=           0 cpu:         0.0
 (Enter /opt/programs/gaussian/g09/d_pgi133/l101.exe)
 --
 SP
 --
 Symbolic Z-matrix:
 Charge =  0 Multiplicity = 1
 C                     1.39817   0.5272    0.22441 
 H                     2.01441   1.35294  -0.16439 
 H                     1.44318   0.57662   1.32521 
 C                    -0.04225   0.70265  -0.23893 
 H                    -0.06319   0.64168  -1.33558 
 H                    -0.39047   1.70534   0.03571 
 C                    -1.00011  -0.33618   0.3493 
 H                    -0.65274  -1.34723   0.09798 
 H                    -1.00776  -0.25693   1.44252 
 O                     1.86718  -0.73238  -0.25134 
 H                     2.76113  -0.86758   0.08669 
 O                    -2.34814  -0.12614  -0.05961 
 H                    -2.39178  -0.2987   -1.00923 
 
 NAtoms=     13 NQM=       13 NQMF=       0 NMMI=      0 NMMIF=      0
                NMic=       0 NMicF=      0.
                    Isotopes and Nuclear Properties:
 (Nuclear quadrupole moments (NQMom) in fm**2, nuclear magnetic moments (NMagM)
  in nuclear magnetons)

  Atom         1           2           3           4           5           6           7           8           9          10
 IAtWgt=          12           1           1          12           1           1          12           1           1          16
 AtmWgt=  12.0000000   1.0078250   1.0078250  12.0000000   1.0078250   1.0078250  12.0000000   1.0078250   1.0078250  15.9949146
 NucSpn=           0           1           1           0           1           1           0           1           1           0
 AtZEff=   0.0000000   0.0000000   0.0000000   0.0000000   0.0000000   0.0000000   0.0000000   0.0000000   0.0000000   0.0000000
 NQMom=    0.0000000   0.0000000   0.0000000   0.0000000   0.0000000   0.0000000   0.0000000   0.0000000   0.0000000   0.0000000
 NMagM=    0.0000000   2.7928460   2.7928460   0.0000000   2.7928460   2.7928460   0.0000000   2.7928460   2.7928460   0.0000000
 AtZNuc=   6.0000000   1.0000000   1.0000000   6.0000000   1.0000000   1.0000000   6.0000000   1.0000000   1.0000000   8.0000000

  Atom        11          12          13
 IAtWgt=           1          16           1
 AtmWgt=   1.0078250  15.9949146   1.0078250
 NucSpn=           1           0           1
 AtZEff=   0.0000000   0.0000000   0.0000000
 NQMom=    0.0000000   0.0000000   0.0000000
 NMagM=    2.7928460   0.0000000   2.7928460
 AtZNuc=   1.0000000   8.0000000   1.0000000
 Leave Link  101 at Mon Nov 10 19:32:15 2025, MaxMem=    33554432 cpu:         0.0
 (Enter /opt/programs/gaussian/g09/d_pgi133/l202.exe)
                          Input orientation:                          
 ---------------------------------------------------------------------
 Center     Atomic      Atomic             Coordinates (Angstroms)
 Number     Number       Type             X           Y           Z
 ---------------------------------------------------------------------
      1          6           0        1.398173    0.527201    0.224414
      2          1           0        2.014407    1.352943   -0.164389
      3          1           0        1.443175    0.576623    1.325207
      4          6           0       -0.042246    0.702646   -0.238927
      5          1           0       -0.063193    0.641680   -1.335581
      6          1           0       -0.390465    1.705335    0.035708
      7          6           0       -1.000113   -0.336181    0.349295
      8          1           0       -0.652739   -1.347228    0.097977
      9          1           0       -1.007762   -0.256929    1.442519
     10          8           0        1.867182   -0.732377   -0.251337
     11          1           0        2.761126   -0.867581    0.086688
     12          8           0       -2.348139   -0.126141   -0.059611
     13          1           0       -2.391780   -0.298698   -1.009228
 ---------------------------------------------------------------------
                    Distance matrix (angstroms):
                    1          2          3          4          5
     1  C    0.000000
     2  H    1.101255   0.000000
     3  H    1.102820   1.774225   0.000000
     4  C    1.523244   2.158301   2.160757   0.000000
     5  H    2.140626   2.488776   3.058295   1.098547   0.000000
     6  H    2.150078   2.438776   2.509788   1.096388   1.766041
     7  C    2.552019   3.493471   2.784829   1.530580   2.161675
     8  H    2.781315   3.804396   3.098411   2.165223   2.521588
     9  H    2.808409   3.782505   2.591460   2.163392   3.068802
    10  O    1.425779   2.092318   2.092547   2.388590   2.605756
    11  H    1.955000   2.356132   2.314444   3.229633   3.503926
    12  O    3.813447   4.607654   4.097031   2.456865   2.727385
    13  H    4.070347   4.780811   4.574129   2.667651   2.532417
                    6          7          8          9         10
     6  H    0.000000
     7  C    2.153554   0.000000
     8  H    3.064442   1.098201   0.000000
     9  H    2.492118   1.096120   1.767084   0.000000
    10  O    3.334937   2.956199   2.617263   3.370534   0.000000
    11  H    4.068786   3.807659   3.447414   4.051628   0.965234
    12  O    2.682513   1.424252   2.095297   2.017451   4.263005
    13  H    3.018824   1.945180   2.312916   2.815726   4.347555
                   11         12         13
    11  H    0.000000
    12  O    5.164855   0.000000
    13  H    5.298783   0.966154   0.000000
 Stoichiometry    C3H8O2
 Framework group  C1[X(C3H8O2)]
 Deg. of freedom    33
 Full point group                 C1      NOp   1
 Largest Abelian subgroup         C1      NOp   1
 Largest concise Abelian subgroup C1      NOp   1
                         Standard orientation:                         
 ---------------------------------------------------------------------
 Center     Atomic      Atomic             Coordinates (Angstroms)
 Number     Number       Type             X           Y           Z
 ---------------------------------------------------------------------
      1          6           0        1.398173    0.527201    0.224414
      2          1           0        2.014407    1.352943   -0.164389
      3          1           0        1.443175    0.576623    1.325207
      4          6           0       -0.042246    0.702646   -0.238927
      5          1           0       -0.063193    0.641680   -1.335581
      6          1           0       -0.390465    1.705335    0.035708
      7          6           0       -1.000113   -0.336181    0.349295
      8          1           0       -0.652739   -1.347228    0.097977
      9          1           0       -1.007762   -0.256929    1.442519
     10          8           0        1.867182   -0.732377   -0.251337
     11          1           0        2.761126   -0.867581    0.086688
     12          8           0       -2.348139   -0.126141   -0.059611
     13          1           0       -2.391780   -0.298698   -1.009228
 ---------------------------------------------------------------------
 Rotational constants (GHZ):     13.2389103      2.3926464      2.2127510
 Leave Link  202 at Mon Nov 10 19:32:15 2025, MaxMem=    33554432 cpu:         0.0
 (Enter /opt/programs/gaussian/g09/d_pgi133/l301.exe)
 Standard basis: 6-311++G(d,p) (5D, 7F)
 Ernie: Thresh=  0.10000D-02 Tol=  0.10000D-05 Strict=F.
 There are   171 symmetry adapted cartesian basis functions of A   symmetry.
 There are   166 symmetry adapted basis functions of A   symmetry.
   166 basis functions,   252 primitive gaussians,   171 cartesian basis functions
    21 alpha electrons       21 beta electrons
       nuclear repulsion energy       187.5699554808 Hartrees.
 IExCor= 4336 DFT=T Ex+Corr=M062X ExCW=0 ScaHFX=  0.540000
 ScaDFX=  1.000000  1.000000  1.000000  1.000000 ScalE2=  1.000000  1.000000
 IRadAn=      0 IRanWt=     -1 IRanGd=            0 ICorTp=0 IEmpDi=  4
 NAtoms=   13 NActive=   13 NUniq=   13 SFac= 1.00D+00 NAtFMM=   60 NAOKFM=F Big=F
 Integral buffers will be    131072 words long.
 Raffenetti 2 integral format.
 Two-electron integral symmetry is turned on.
 Leave Link  301 at Mon Nov 10 19:32:15 2025, MaxMem=    33554432 cpu:         0.0
 (Enter /opt/programs/gaussian/g09/d_pgi133/l302.exe)
 NPDir=0 NMtPBC=     1 NCelOv=     1 NCel=       1 NClECP=     1 NCelD=      1
         NCelK=      1 NCelE2=     1 NClLst=     1 CellRange=     0.0.
 One-electron integrals computed using PRISM.
 NBasis=   166 RedAO= T EigKep=  3.61D-05  NBF=   166
 NBsUse=   166 1.00D-06 EigRej= -1.00D+00 NBFU=   166
 Precomputing XC quadrature grid using
 IXCGrd= 4 IRadAn=           0 IRanWt=          -1 IRanGd=           0 AccXCQ= 0.00D+00.
 Generated NRdTot=       0 NPtTot=           0 NUsed=           0 NTot=          32
 NSgBfM=   171   171   171   171   171 MxSgAt=    13 MxSgA2=    13.
 Leave Link  302 at Mon Nov 10 19:32:15 2025, MaxMem=    33554432 cpu:         0.1
 (Enter /opt/programs/gaussian/g09/d_pgi133/l303.exe)
 DipDrv:  MaxL=1.
 Leave Link  303 at Mon Nov 10 19:32:15 2025, MaxMem=    33554432 cpu:         0.0
 (Enter /opt/programs/gaussian/g09/d_pgi133/l401.exe)
 ExpMin= 3.60D-02 ExpMax= 8.59D+03 ExpMxC= 1.30D+03 IAcc=3 IRadAn=         5 AccDes= 0.00D+00
 Harris functional with IExCor= 1009 and IRadAn=       5 diagonalized for initial guess.
 HarFok:  IExCor= 1009 AccDes= 0.00D+00 IRadAn=         5 IDoV= 1 UseB2=F ITyADJ=14
 ICtDFT=  3500011 ScaDFX=  1.000000  1.000000  1.000000  1.000000
 FoFCou: FMM=F IPFlag=           0 FMFlag=      100000 FMFlg1=           0
         NFxFlg=           0 DoJE=T BraDBF=F KetDBF=T FulRan=T
         wScrn=  0.000000 ICntrl=     500 IOpCl=  0 I1Cent=   200000004 NGrid=           0
         NMat0=    1 NMatS0=      1 NMatT0=    0 NMatD0=    1 NMtDS0=    0 NMtDT0=    0
 Petite list used in FoFCou.
 Harris En= -269.444166155907    
 JPrj=0 DoOrth=F DoCkMO=F.
 Leave Link  401 at Mon Nov 10 19:32:17 2025, MaxMem=    33554432 cpu:         1.5
 (Enter /opt/programs/gaussian/g09/d_pgi133/l502.exe)
 Closed shell SCF:
 Using DIIS extrapolation, IDIIS=  1040.
 Integral symmetry usage will be decided dynamically.
 IVT=      108587 IEndB=      108587 NGot=    33554432 MDV=    33491898
 LenX=    33491898 LenY=    33462216
 Requested convergence on RMS density matrix=1.00D-08 within 128 cycles.
 Requested convergence on MAX density matrix=1.00D-06.
 Requested convergence on             energy=1.00D-06.
 No special actions if energy rises.
 Fock matrices will be formed incrementally for  20 cycles.

 Cycle   1  Pass 1  IDiag  1:
 FoFJK:  IHMeth= 1 ICntrl=       0 DoSepK=F KAlg= 0 I1Cent=   0 FoldK=F
 IRaf= 980000000 NMat=   1 IRICut=       1 DoRegI=T DoRafI=F ISym2E= 0.
 FoFCou: FMM=F IPFlag=           0 FMFlag=      100000 FMFlg1=           0
         NFxFlg=           0 DoJE=F BraDBF=F KetDBF=F FulRan=T
         wScrn=  0.000000 ICntrl=       0 IOpCl=  0 I1Cent=           0 NGrid=           0
         NMat0=    1 NMatS0=      1 NMatT0=    0 NMatD0=    1 NMtDS0=    0 NMtDT0=    0
 Symmetry not used in FoFCou.
 E= -269.362645533101    
 DIIS: error= 3.09D-02 at cycle   1 NSaved=   1.
 NSaved= 1 IEnMin= 1 EnMin= -269.362645533101     IErMin= 1 ErrMin= 3.09D-02
 ErrMax= 3.09D-02  0.00D+00 EMaxC= 1.00D-01 BMatC= 2.35D-01 BMatP= 2.35D-01
 IDIUse=3 WtCom= 6.91D-01 WtEn= 3.09D-01
 Coeff-Com:  0.100D+01
 Coeff-En:   0.100D+01
 Coeff:      0.100D+01
 Gap=     0.290 Goal=   None    Shift=    0.000
 GapD=    0.290 DampG=1.000 DampE=0.500 DampFc=0.5000 IDamp=-1.
 Damping current iteration by 5.00D-01
 RMSDP=5.87D-03 MaxDP=1.36D-01              OVMax= 1.38D-01

 Cycle   2  Pass 1  IDiag  1:
 RMSU=  2.91D-03    CP:  9.73D-01
 E= -269.443939181880     Delta-E=       -0.081293648780 Rises=F Damp=T
 DIIS: error= 7.20D-03 at cycle   2 NSaved=   2.
 NSaved= 2 IEnMin= 2 EnMin= -269.443939181880     IErMin= 2 ErrMin= 7.20D-03
 ErrMax= 7.20D-03  0.00D+00 EMaxC= 1.00D-01 BMatC= 1.52D-02 BMatP= 2.35D-01
 IDIUse=3 WtCom= 9.28D-01 WtEn= 7.20D-02
 Coeff-Com: -0.377D-01 0.104D+01
 Coeff-En:   0.000D+00 0.100D+01
 Coeff:     -0.350D-01 0.104D+01
 Gap=     0.341 Goal=   None    Shift=    0.000
 RMSDP=1.99D-03 MaxDP=7.86D-02 DE=-8.13D-02 OVMax= 7.39D-02

 Cycle   3  Pass 1  IDiag  1:
 RMSU=  1.94D-03    CP:  9.45D-01  9.77D-01
 E= -269.528684623210     Delta-E=       -0.084745441330 Rises=F Damp=F
 DIIS: error= 4.81D-03 at cycle   3 NSaved=   3.
 NSaved= 3 IEnMin= 3 EnMin= -269.528684623210     IErMin= 3 ErrMin= 4.81D-03
 ErrMax= 4.81D-03  0.00D+00 EMaxC= 1.00D-01 BMatC= 3.96D-03 BMatP= 1.52D-02
 IDIUse=3 WtCom= 9.52D-01 WtEn= 4.81D-02
 Coeff-Com: -0.767D-01 0.315D+00 0.762D+00
 Coeff-En:   0.000D+00 0.000D+00 0.100D+01
 Coeff:     -0.730D-01 0.299D+00 0.774D+00
 Gap=     0.335 Goal=   None    Shift=    0.000
 RMSDP=3.60D-04 MaxDP=8.71D-03 DE=-8.47D-02 OVMax= 1.13D-02

 Cycle   4  Pass 1  IDiag  1:
 RMSU=  3.32D-04    CP:  9.46D-01  1.02D+00  9.85D-01
 E= -269.530765102642     Delta-E=       -0.002080479432 Rises=F Damp=F
 DIIS: error= 1.73D-03 at cycle   4 NSaved=   4.
 NSaved= 4 IEnMin= 4 EnMin= -269.530765102642     IErMin= 4 ErrMin= 1.73D-03
 ErrMax= 1.73D-03  0.00D+00 EMaxC= 1.00D-01 BMatC= 7.63D-04 BMatP= 3.96D-03
 IDIUse=3 WtCom= 9.83D-01 WtEn= 1.73D-02
 Coeff-Com: -0.313D-01 0.837D-01 0.375D+00 0.572D+00
 Coeff-En:   0.000D+00 0.000D+00 0.116D+00 0.884D+00
 Coeff:     -0.308D-01 0.823D-01 0.371D+00 0.578D+00
 Gap=     0.332 Goal=   None    Shift=    0.000
 RMSDP=1.48D-04 MaxDP=3.51D-03 DE=-2.08D-03 OVMax= 4.63D-03

 Cycle   5  Pass 1  IDiag  1:
 RMSU=  9.95D-05    CP:  9.44D-01  1.02D+00  9.92D-01  6.92D-01
 E= -269.531378978455     Delta-E=       -0.000613875813 Rises=F Damp=F
 DIIS: error= 1.70D-04 at cycle   5 NSaved=   5.
 NSaved= 5 IEnMin= 5 EnMin= -269.531378978455     IErMin= 5 ErrMin= 1.70D-04
 ErrMax= 1.70D-04  0.00D+00 EMaxC= 1.00D-01 BMatC= 9.49D-06 BMatP= 7.63D-04
 IDIUse=3 WtCom= 9.98D-01 WtEn= 1.70D-03
 Coeff-Com: -0.376D-02 0.534D-02 0.533D-01 0.148D+00 0.797D+00
 Coeff-En:   0.000D+00 0.000D+00 0.000D+00 0.000D+00 0.100D+01
 Coeff:     -0.376D-02 0.533D-02 0.532D-01 0.148D+00 0.797D+00
 Gap=     0.332 Goal=   None    Shift=    0.000
 RMSDP=3.60D-05 MaxDP=1.55D-03 DE=-6.14D-04 OVMax= 6.23D-04

 Cycle   6  Pass 1  IDiag  1:
 RMSU=  2.83D-05    CP:  9.44D-01  1.01D+00  9.97D-01  7.36D-01  9.26D-01
 E= -269.531386836542     Delta-E=       -0.000007858086 Rises=F Damp=F
 DIIS: error= 2.49D-05 at cycle   6 NSaved=   6.
 NSaved= 6 IEnMin= 6 EnMin= -269.531386836542     IErMin= 6 ErrMin= 2.49D-05
 ErrMax= 2.49D-05  0.00D+00 EMaxC= 1.00D-01 BMatC= 1.43D-07 BMatP= 9.49D-06
 IDIUse=1 WtCom= 1.00D+00 WtEn= 0.00D+00
 Coeff-Com:  0.790D-03-0.215D-02-0.741D-02-0.571D-02 0.469D-01 0.968D+00
 Coeff:      0.790D-03-0.215D-02-0.741D-02-0.571D-02 0.469D-01 0.968D+00
 Gap=     0.332 Goal=   None    Shift=    0.000
 RMSDP=9.79D-06 MaxDP=2.80D-04 DE=-7.86D-06 OVMax= 1.27D-04

 Cycle   7  Pass 1  IDiag  1:
 RMSU=  5.70D-06    CP:  9.44D-01  1.01D+00  9.98D-01  7.45D-01  9.61D-01
                    CP:  1.06D+00
 E= -269.531387014013     Delta-E=       -0.000000177471 Rises=F Damp=F
 DIIS: error= 8.89D-06 at cycle   7 NSaved=   7.
 NSaved= 7 IEnMin= 7 EnMin= -269.531387014013     IErMin= 7 ErrMin= 8.89D-06
 ErrMax= 8.89D-06  0.00D+00 EMaxC= 1.00D-01 BMatC= 2.55D-08 BMatP= 1.43D-07
 IDIUse=1 WtCom= 1.00D+00 WtEn= 0.00D+00
 Coeff-Com:  0.491D-03-0.103D-02-0.566D-02-0.106D-01-0.336D-01 0.299D+00
 Coeff-Com:  0.751D+00
 Coeff:      0.491D-03-0.103D-02-0.566D-02-0.106D-01-0.336D-01 0.299D+00
 Coeff:      0.751D+00
 Gap=     0.332 Goal=   None    Shift=    0.000
 RMSDP=1.84D-06 MaxDP=3.89D-05 DE=-1.77D-07 OVMax= 3.67D-05

 Cycle   8  Pass 1  IDiag  1:
 RMSU=  8.88D-07    CP:  9.44D-01  1.01D+00  9.98D-01  7.46D-01  9.65D-01
                    CP:  1.10D+00  8.97D-01
 E= -269.531387038032     Delta-E=       -0.000000024019 Rises=F Damp=F
 DIIS: error= 2.78D-06 at cycle   8 NSaved=   8.
 NSaved= 8 IEnMin= 8 EnMin= -269.531387038032     IErMin= 8 ErrMin= 2.78D-06
 ErrMax= 2.78D-06  0.00D+00 EMaxC= 1.00D-01 BMatC= 2.60D-09 BMatP= 2.55D-08
 IDIUse=1 WtCom= 1.00D+00 WtEn= 0.00D+00
 Coeff-Com:  0.124D-03-0.239D-03-0.161D-02-0.349D-02-0.155D-01 0.519D-01
 Coeff-Com:  0.284D+00 0.685D+00
 Coeff:      0.124D-03-0.239D-03-0.161D-02-0.349D-02-0.155D-01 0.519D-01
 Coeff:      0.284D+00 0.685D+00
 Gap=     0.333 Goal=   None    Shift=    0.000
 RMSDP=4.99D-07 MaxDP=1.86D-05 DE=-2.40D-08 OVMax= 1.36D-05

 Cycle   9  Pass 1  IDiag  1:
 RMSU=  3.19D-07    CP:  9.44D-01  1.01D+00  9.98D-01  7.46D-01  9.65D-01
                    CP:  1.10D+00  9.48D-01  9.68D-01
 E= -269.531387040270     Delta-E=       -0.000000002238 Rises=F Damp=F
 DIIS: error= 7.69D-07 at cycle   9 NSaved=   9.
 NSaved= 9 IEnMin= 9 EnMin= -269.531387040270     IErMin= 9 ErrMin= 7.69D-07
 ErrMax= 7.69D-07  0.00D+00 EMaxC= 1.00D-01 BMatC= 1.75D-10 BMatP= 2.60D-09
 IDIUse=1 WtCom= 1.00D+00 WtEn= 0.00D+00
 Coeff-Com: -0.551D-05 0.152D-04-0.320D-04-0.180D-03-0.198D-02-0.883D-02
 Coeff-Com:  0.253D-01 0.213D+00 0.772D+00
 Coeff:     -0.551D-05 0.152D-04-0.320D-04-0.180D-03-0.198D-02-0.883D-02
 Coeff:      0.253D-01 0.213D+00 0.772D+00
 Gap=     0.333 Goal=   None    Shift=    0.000
 RMSDP=1.15D-07 MaxDP=2.88D-06 DE=-2.24D-09 OVMax= 3.79D-06

 Cycle  10  Pass 1  IDiag  1:
 RMSU=  7.91D-08    CP:  9.44D-01  1.01D+00  9.98D-01  7.46D-01  9.65D-01
                    CP:  1.10D+00  9.57D-01  1.03D+00  1.03D+00
 E= -269.531387040398     Delta-E=       -0.000000000129 Rises=F Damp=F
 DIIS: error= 3.96D-07 at cycle  10 NSaved=  10.
 NSaved=10 IEnMin=10 EnMin= -269.531387040398     IErMin=10 ErrMin= 3.96D-07
 ErrMax= 3.96D-07  0.00D+00 EMaxC= 1.00D-01 BMatC= 3.62D-11 BMatP= 1.75D-10
 IDIUse=1 WtCom= 1.00D+00 WtEn= 0.00D+00
 Coeff-Com: -0.139D-04 0.290D-04 0.135D-03 0.244D-03 0.557D-03-0.870D-02
 Coeff-Com: -0.183D-01 0.247D-01 0.362D+00 0.640D+00
 Coeff:     -0.139D-04 0.290D-04 0.135D-03 0.244D-03 0.557D-03-0.870D-02
 Coeff:     -0.183D-01 0.247D-01 0.362D+00 0.640D+00
 Gap=     0.333 Goal=   None    Shift=    0.000
 RMSDP=5.70D-08 MaxDP=1.96D-06 DE=-1.29D-10 OVMax= 1.47D-06

 Cycle  11  Pass 1  IDiag  1:
 RMSU=  2.54D-08    CP:  9.44D-01  1.01D+00  9.98D-01  7.46D-01  9.65D-01
                    CP:  1.10D+00  9.63D-01  1.04D+00  1.09D+00  8.62D-01
 E= -269.531387040425     Delta-E=       -0.000000000027 Rises=F Damp=F
 DIIS: error= 5.30D-08 at cycle  11 NSaved=  11.
 NSaved=11 IEnMin=11 EnMin= -269.531387040425     IErMin=11 ErrMin= 5.30D-08
 ErrMax= 5.30D-08  0.00D+00 EMaxC= 1.00D-01 BMatC= 8.72D-13 BMatP= 3.62D-11
 IDIUse=1 WtCom= 1.00D+00 WtEn= 0.00D+00
 Coeff-Com: -0.156D-05 0.342D-05 0.243D-04 0.443D-04 0.182D-03-0.744D-03
 Coeff-Com: -0.476D-02-0.113D-01 0.145D-02 0.117D+00 0.898D+00
 Coeff:     -0.156D-05 0.342D-05 0.243D-04 0.443D-04 0.182D-03-0.744D-03
 Coeff:     -0.476D-02-0.113D-01 0.145D-02 0.117D+00 0.898D+00
 Gap=     0.333 Goal=   None    Shift=    0.000
 RMSDP=1.54D-08 MaxDP=5.90D-07 DE=-2.67D-11 OVMax= 5.39D-07

 Cycle  12  Pass 1  IDiag  1:
 RMSU=  9.43D-09    CP:  9.44D-01  1.01D+00  9.98D-01  7.46D-01  9.65D-01
                    CP:  1.10D+00  9.63D-01  1.05D+00  1.11D+00  9.21D-01
                    CP:  1.04D+00
 E= -269.531387040424     Delta-E=        0.000000000001 Rises=F Damp=F
 DIIS: error= 1.38D-08 at cycle  12 NSaved=  12.
 NSaved=12 IEnMin=11 EnMin= -269.531387040425     IErMin=12 ErrMin= 1.38D-08
 ErrMax= 1.38D-08  0.00D+00 EMaxC= 1.00D-01 BMatC= 5.16D-14 BMatP= 8.72D-13
 IDIUse=1 WtCom= 1.00D+00 WtEn= 0.00D+00
 Coeff-Com:  0.859D-06-0.166D-05-0.596D-05-0.122D-04-0.216D-04 0.529D-03
 Coeff-Com:  0.717D-03-0.345D-02-0.257D-01-0.313D-01 0.114D+00 0.945D+00
 Coeff:      0.859D-06-0.166D-05-0.596D-05-0.122D-04-0.216D-04 0.529D-03
 Coeff:      0.717D-03-0.345D-02-0.257D-01-0.313D-01 0.114D+00 0.945D+00
 Gap=     0.333 Goal=   None    Shift=    0.000
 RMSDP=4.78D-09 MaxDP=1.68D-07 DE= 1.14D-12 OVMax= 1.83D-07

 SCF Done:  E(RM062X) =  -269.531387040     A.U. after   12 cycles
            NFock= 12  Conv=0.48D-08     -V/T= 2.0039
 KE= 2.684939718117D+02 PE=-1.006811057600D+03 EE= 2.812157432669D+02
 Leave Link  502 at Mon Nov 10 19:32:42 2025, MaxMem=    33554432 cpu:        25.0
 (Enter /opt/programs/gaussian/g09/d_pgi133/l601.exe)
 Copying SCF densities to generalized density rwf, IOpCl= 0 IROHF=0.

 **********************************************************************

            Population analysis using the SCF density.

 **********************************************************************

 Orbital symmetries:
       Occupied  (A) (A) (A) (A) (A) (A) (A) (A) (A) (A) (A) (A)
                 (A) (A) (A) (A) (A) (A) (A) (A) (A)
       Virtual   (A) (A) (A) (A) (A) (A) (A) (A) (A) (A) (A) (A)
                 (A) (A) (A) (A) (A) (A) (A) (A) (A) (A) (A) (A)
                 (A) (A) (A) (A) (A) (A) (A) (A) (A) (A) (A) (A)
                 (A) (A) (A) (A) (A) (A) (A) (A) (A) (A) (A) (A)
                 (A) (A) (A) (A) (A) (A) (A) (A) (A) (A) (A) (A)
                 (A) (A) (A) (A) (A) (A) (A) (A) (A) (A) (A) (A)
                 (A) (A) (A) (A) (A) (A) (A) (A) (A) (A) (A) (A)
                 (A) (A) (A) (A) (A) (A) (A) (A) (A) (A) (A) (A)
                 (A) (A) (A) (A) (A) (A) (A) (A) (A) (A) (A) (A)
                 (A) (A) (A) (A) (A) (A) (A) (A) (A) (A) (A) (A)
                 (A) (A) (A) (A) (A) (A) (A) (A) (A) (A) (A) (A)
                 (A) (A) (A) (A) (A) (A) (A) (A) (A) (A) (A) (A)
                 (A)
 The electronic state is 1-A.
 Alpha  occ. eigenvalues --  -19.63024 -19.61903 -10.59379 -10.57955 -10.53727
 Alpha  occ. eigenvalues --   -1.15168  -1.13976  -0.87634  -0.76321  -0.68201
 Alpha  occ. eigenvalues --   -0.61145  -0.57575  -0.54650  -0.51294  -0.48688
 Alpha  occ. eigenvalues --   -0.45806  -0.44473  -0.40973  -0.39041  -0.36577
 Alpha  occ. eigenvalues --   -0.33945
 Alpha virt. eigenvalues --   -0.00694   0.00612   0.01496   0.01822   0.04172
 Alpha virt. eigenvalues --    0.04415   0.04846   0.05736   0.07862   0.09463
 Alpha virt. eigenvalues --    0.10205   0.11428   0.11833   0.12303   0.13158
 Alpha virt. eigenvalues --    0.13373   0.14329   0.15093   0.16765   0.16998
 Alpha virt. eigenvalues --    0.20141   0.21256   0.21783   0.22060   0.23028
 Alpha virt. eigenvalues --    0.24144   0.25433   0.26806   0.27946   0.28587
 Alpha virt. eigenvalues --    0.29625   0.30740   0.31406   0.32468   0.33643
 Alpha virt. eigenvalues --    0.34831   0.35349   0.38740   0.40466   0.41345
 Alpha virt. eigenvalues --    0.47350   0.49197   0.51326   0.52444   0.58127
 Alpha virt. eigenvalues --    0.59759   0.60987   0.63106   0.65924   0.68030
 Alpha virt. eigenvalues --    0.69621   0.71550   0.72192   0.75484   0.75925
 Alpha virt. eigenvalues --    0.77066   0.78512   0.92874   0.95699   1.02373
 Alpha virt. eigenvalues --    1.04531   1.05145   1.13397   1.14206   1.17703
 Alpha virt. eigenvalues --    1.21454   1.24298   1.27641   1.30329   1.32682
 Alpha virt. eigenvalues --    1.40343   1.43014   1.44704   1.48617   1.53150
 Alpha virt. eigenvalues --    1.55510   1.59525   1.60077   1.61693   1.63423
 Alpha virt. eigenvalues --    1.64454   1.65943   1.69249   1.71274   1.75856
 Alpha virt. eigenvalues --    1.76227   1.81135   1.82654   1.85372   1.85732
 Alpha virt. eigenvalues --    1.97398   2.01626   2.05108   2.09958   2.11399
 Alpha virt. eigenvalues --    2.14221   2.17735   2.26043   2.27917   2.33864
 Alpha virt. eigenvalues --    2.36018   2.47518   2.51390   2.53050   2.54464
 Alpha virt. eigenvalues --    2.56871   2.59546   2.62984   2.66128   2.68888
 Alpha virt. eigenvalues --    2.73001   2.78464   2.80341   2.88778   2.91418
 Alpha virt. eigenvalues --    2.98392   3.02049   3.11559   3.17942   3.20378
 Alpha virt. eigenvalues --    3.26160   3.27340   3.33526   3.38056   3.43778
 Alpha virt. eigenvalues --    3.80490   3.83594   3.85110   3.91846   3.94788
 Alpha virt. eigenvalues --    4.03631   4.05584   4.17757   4.34503   5.16736
 Alpha virt. eigenvalues --    5.19977   5.49642   5.50499   5.73518   5.74374
 Alpha virt. eigenvalues --   23.89880  23.93235  23.98229  50.02277  50.03354
          Condensed to atoms (all electrons):
               1          2          3          4          5          6
     1  C    5.452807   0.394331   0.374981   0.113389  -0.096964  -0.011542
     2  H    0.394331   0.636757  -0.083099  -0.063208  -0.012205   0.008801
     3  H    0.374981  -0.083099   0.659732  -0.005245   0.011452  -0.014302
     4  C    0.113389  -0.063208  -0.005245   5.690525   0.471486   0.363874
     5  H   -0.096964  -0.012205   0.011452   0.471486   0.560901  -0.057351
     6  H   -0.011542   0.008801  -0.014302   0.363874  -0.057351   0.547256
     7  C   -0.036403   0.017176  -0.023843  -0.113869  -0.007910  -0.041979
     8  H   -0.005565   0.002356  -0.000883  -0.002612  -0.033645   0.021039
     9  H   -0.018964  -0.001993   0.001617   0.012382   0.014184  -0.021031
    10  O    0.142401  -0.052313  -0.066864  -0.047679  -0.028324   0.025370
    11  H    0.024126  -0.004088  -0.011491  -0.015278   0.002749  -0.002849
    12  O    0.035367  -0.000640   0.000307  -0.102900  -0.029116   0.017186
    13  H    0.002047  -0.000338   0.000243   0.032486   0.007138  -0.006371
               7          8          9         10         11         12
     1  C   -0.036403  -0.005565  -0.018964   0.142401   0.024126   0.035367
     2  H    0.017176   0.002356  -0.001993  -0.052313  -0.004088  -0.000640
     3  H   -0.023843  -0.000883   0.001617  -0.066864  -0.011491   0.000307
     4  C   -0.113869  -0.002612   0.012382  -0.047679  -0.015278  -0.102900
     5  H   -0.007910  -0.033645   0.014184  -0.028324   0.002749  -0.029116
     6  H   -0.041979   0.021039  -0.021031   0.025370  -0.002849   0.017186
     7  C    5.660115   0.314116   0.400219  -0.048098   0.005369   0.234375
     8  H    0.314116   0.629467  -0.080155   0.030676  -0.002181  -0.018426
     9  H    0.400219  -0.080155   0.598629  -0.013865   0.000835  -0.092129
    10  O   -0.048098   0.030676  -0.013865   8.114887   0.223412  -0.000250
    11  H    0.005369  -0.002181   0.000835   0.223412   0.511784   0.000079
    12  O    0.234375  -0.018426  -0.092129  -0.000250   0.000079   7.971094
    13  H   -0.059795  -0.024373   0.021641  -0.000683  -0.000252   0.255148
              13
     1  C    0.002047
     2  H   -0.000338
     3  H    0.000243
     4  C    0.032486
     5  H    0.007138
     6  H   -0.006371
     7  C   -0.059795
     8  H   -0.024373
     9  H    0.021641
    10  O   -0.000683
    11  H   -0.000252
    12  O    0.255148
    13  H    0.523471
 Mulliken charges:
               1
     1  C   -0.370012
     2  H    0.158463
     3  H    0.157394
     4  C   -0.333351
     5  H    0.197605
     6  H    0.171899
     7  C   -0.299472
     8  H    0.170186
     9  H    0.178630
    10  O   -0.278669
    11  H    0.267784
    12  O   -0.270095
    13  H    0.249638
 Sum of Mulliken charges =   0.00000
 Mulliken charges with hydrogens summed into heavy atoms:
               1
     1  C   -0.054155
     4  C    0.036153
     7  C    0.049344
    10  O   -0.010885
    12  O   -0.020457
 Electronic spatial extent (au):  <R**2>=            561.1614
 Charge=              0.0000 electrons
 Dipole moment (field-independent basis, Debye):
    X=              2.4567    Y=              0.6476    Z=             -0.0617  Tot=              2.5414
 Quadrupole moment (field-independent basis, Debye-Ang):
   XX=            -32.3502   YY=            -32.5800   ZZ=            -30.1167
   XY=              1.3187   XZ=              5.6091   YZ=             -0.1654
 Traceless Quadrupole moment (field-independent basis, Debye-Ang):
   XX=             -0.6679   YY=             -0.8977   ZZ=              1.5656
   XY=              1.3187   XZ=              5.6091   YZ=             -0.1654
 Octapole moment (field-independent basis, Debye-Ang**2):
  XXX=             39.3911  YYY=             -2.3695  ZZZ=             -2.0110  XYY=              0.9603
  XXY=             -6.0021  XXZ=             -4.9738  XZZ=             -6.5911  YZZ=             -1.2189
  YYZ=             -0.1293  XYZ=             -3.4193
 Hexadecapole moment (field-independent basis, Debye-Ang**3):
 XXXX=           -478.0887 YYYY=           -113.7922 ZZZZ=            -65.3974 XXXY=            -20.6109
 XXXZ=             36.8890 YYYX=             -4.4291 YYYZ=              1.4162 ZZZX=              7.4653
 ZZZY=              0.9975 XXYY=           -100.9103 XXZZ=            -86.6884 YYZZ=            -32.4434
 XXYZ=             -0.4119 YYXZ=              1.3226 ZZXY=              1.3346
 N-N= 1.875699554808D+02 E-N=-1.006811058013D+03  KE= 2.684939718117D+02
 No NMR shielding tensors so no spin-rotation constants.
 Leave Link  601 at Mon Nov 10 19:32:42 2025, MaxMem=    33554432 cpu:         0.1
 (Enter /opt/programs/gaussian/g09/d_pgi133/l9999.exe)
 1\1\GINC-EXADE5\SP\RM062X\6-311++G(d,p)\C3H8O2\APINTO\10-Nov-2025\0\\#
 p M062X/6-311++G(d,p)\\SP\\0,1\C,0,1.398173,0.527201,0.224414\H,0,2.01
 4407,1.352943,-0.164389\H,0,1.443175,0.576623,1.325207\C,0,-0.042246,0
 .702646,-0.238927\H,0,-0.063193,0.64168,-1.335581\H,0,-0.390465,1.7053
 35,0.035708\C,0,-1.000113,-0.336181,0.349295\H,0,-0.652739,-1.347228,0
 .097977\H,0,-1.007762,-0.256929,1.442519\O,0,1.867182,-0.732377,-0.251
 337\H,0,2.761126,-0.867581,0.086688\O,0,-2.348139,-0.126141,-0.059611\
 H,0,-2.39178,-0.298698,-1.009228\\Version=ES64L-G09RevD.01\State=1-A\H
 F=-269.531387\RMSD=4.781e-09\Dipole=0.9665495,0.2547843,-0.0242666\Qua
 drupole=-0.4965842,-0.6674132,1.1639974,0.9804298,4.170216,-0.1229589\
 PG=C01 [X(C3H8O2)]\\@


 ... FOR AFTERWARDS A MAN FINDS PLEASURE IN HIS PAINS,
 WHEN HE HAS SUFFERED LONG AND WANDERED FAR.

                                    -- HOMER
 Job cpu time:       0 days  0 hours  0 minutes 26.7 seconds.
 File lengths (MBytes):  RWF=     16 Int=      0 D2E=      0 Chk=      2 Scr=      1
 Normal termination of Gaussian 09 at Mon Nov 10 19:32:42 2025.
