 Entering Gaussian System, Link 0=g09
 Input=xac.com
 Output=xac.log
 Initial command:
 /opt/programs/gaussian/g09/d_pgi133/l1.exe "/scratch/users/apinto/lixo/Gau-1262274.inp" -scrdir="/scratch/users/apinto/lixo/"
 Entering Link 1 = /opt/programs/gaussian/g09/d_pgi133/l1.exe PID=   1262276.
  
 Copyright (c) 1988,1990,1992,1993,1995,1998,2003,2009,2013,
            Gaussian, Inc.  All Rights Reserved.
  
 This is part of the Gaussian(R) 09 program.  It is based on
 the Gaussian(R) 03 system (copyright 2003, Gaussian, Inc.),
 the Gaussian(R) 98 system (copyright 1998, Gaussian, Inc.),
 the Gaussian(R) 94 system (copyright 1995, Gaussian, Inc.),
 the Gaussian 92(TM) system (copyright 1992, Gaussian, Inc.),
 the Gaussian 90(TM) system (copyright 1990, Gaussian, Inc.),
 the Gaussian 88(TM) system (copyright 1988, Gaussian, Inc.),
 the Gaussian 86(TM) system (copyright 1986, Carnegie Mellon
 University), and the Gaussian 82(TM) system (copyright 1983,
 Carnegie Mellon University). Gaussian is a federally registered
 trademark of Gaussian, Inc.
  
 This software contains proprietary and confidential information,
 including trade secrets, belonging to Gaussian, Inc.
  
 This software is provided under written license and may be
 used, copied, transmitted, or stored only in accord with that
 written license.
  
 The following legend is applicable only to US Government
 contracts under FAR:
  
                    RESTRICTED RIGHTS LEGEND
  
 Use, reproduction and disclosure by the US Government is
 subject to restrictions as set forth in subparagraphs (a)
 and (c) of the Commercial Computer Software - Restricted
 Rights clause in FAR 52.227-19.
  
 Gaussian, Inc.
 340 Quinnipiac St., Bldg. 40, Wallingford CT 06492
  
  
 ---------------------------------------------------------------
 Warning -- This program may not be used in any manner that
 competes with the business of Gaussian, Inc. or will provide
 assistance to any competitor of Gaussian, Inc.  The licensee
 of this program is prohibited from giving any competitor of
 Gaussian, Inc. access to this program.  By using this program,
 the user acknowledges that Gaussian, Inc. is engaged in the
 business of creating and licensing software in the field of
 computational chemistry and represents and warrants to the
 licensee that it is not a competitor of Gaussian, Inc. and that
 it will not use this program in any manner prohibited above.
 ---------------------------------------------------------------
  

 Cite this work as:
 Gaussian 09, Revision D.01,
 M. J. Frisch, G. W. Trucks, H. B. Schlegel, G. E. Scuseria, 
 M. A. Robb, J. R. Cheeseman, G. Scalmani, V. Barone, B. Mennucci, 
 G. A. Petersson, H. Nakatsuji, M. Caricato, X. Li, H. P. Hratchian, 
 A. F. Izmaylov, J. Bloino, G. Zheng, J. L. Sonnenberg, M. Hada, 
 M. Ehara, K. Toyota, R. Fukuda, J. Hasegawa, M. Ishida, T. Nakajima, 
 Y. Honda, O. Kitao, H. Nakai, T. Vreven, J. A. Montgomery, Jr., 
 J. E. Peralta, F. Ogliaro, M. Bearpark, J. J. Heyd, E. Brothers, 
 K. N. Kudin, V. N. Staroverov, T. Keith, R. Kobayashi, J. Normand, 
 K. Raghavachari, A. Rendell, J. C. Burant, S. S. Iyengar, J. Tomasi, 
 M. Cossi, N. Rega, J. M. Millam, M. Klene, J. E. Knox, J. B. Cross, 
 V. Bakken, C. Adamo, J. Jaramillo, R. Gomperts, R. E. Stratmann, 
 O. Yazyev, A. J. Austin, R. Cammi, C. Pomelli, J. W. Ochterski, 
 R. L. Martin, K. Morokuma, V. G. Zakrzewski, G. A. Voth, 
 P. Salvador, J. J. Dannenberg, S. Dapprich, A. D. Daniels, 
 O. Farkas, J. B. Foresman, J. V. Ortiz, J. Cioslowski, 
 and D. J. Fox, Gaussian, Inc., Wallingford CT, 2013.
 
 ******************************************
 Gaussian 09:  ES64L-G09RevD.01 24-Apr-2013
                10-Nov-2025 
 ******************************************
 ----------------------
 #p M062X/6-311++G(d,p)
 ----------------------
 1/38=1/1;
 2/12=2,17=6,18=5,40=1/2;
 3/5=4,6=6,7=1111,11=2,16=1,25=1,30=1,74=-55/1,2,3;
 4//1;
 5/5=2,38=5/2;
 6/7=2,8=2,9=2,10=2,28=1/1;
 99/5=1,9=1/99;
 Leave Link    1 at Mon Nov 10 19:33:08 2025, MaxMem=           0 cpu:         0.0
 (Enter /opt/programs/gaussian/g09/d_pgi133/l101.exe)
 --
 SP
 --
 Symbolic Z-matrix:
 Charge =  0 Multiplicity = 1
 C                     1.39393   0.50453   0.24208 
 H                     1.98668   1.39649  -0.01456 
 H                     1.39926   0.4154    1.34094 
 C                    -0.03504   0.6775   -0.26 
 H                    -0.02894   0.55815  -1.3512 
 H                    -0.37527   1.69794  -0.0474 
 C                    -1.02122  -0.30475   0.37582 
 H                    -0.68655  -1.337     0.19812 
 H                    -1.0439   -0.15211   1.46086 
 O                     1.93869  -0.65939  -0.37692 
 H                     2.80909  -0.82489   0.00649 
 O                    -2.3592   -0.10294  -0.06615 
 H                    -2.38992  -0.32764  -1.00534 
 
 NAtoms=     13 NQM=       13 NQMF=       0 NMMI=      0 NMMIF=      0
                NMic=       0 NMicF=      0.
                    Isotopes and Nuclear Properties:
 (Nuclear quadrupole moments (NQMom) in fm**2, nuclear magnetic moments (NMagM)
  in nuclear magnetons)

  Atom         1           2           3           4           5           6           7           8           9          10
 IAtWgt=          12           1           1          12           1           1          12           1           1          16
 AtmWgt=  12.0000000   1.0078250   1.0078250  12.0000000   1.0078250   1.0078250  12.0000000   1.0078250   1.0078250  15.9949146
 NucSpn=           0           1           1           0           1           1           0           1           1           0
 AtZEff=   0.0000000   0.0000000   0.0000000   0.0000000   0.0000000   0.0000000   0.0000000   0.0000000   0.0000000   0.0000000
 NQMom=    0.0000000   0.0000000   0.0000000   0.0000000   0.0000000   0.0000000   0.0000000   0.0000000   0.0000000   0.0000000
 NMagM=    0.0000000   2.7928460   2.7928460   0.0000000   2.7928460   2.7928460   0.0000000   2.7928460   2.7928460   0.0000000
 AtZNuc=   6.0000000   1.0000000   1.0000000   6.0000000   1.0000000   1.0000000   6.0000000   1.0000000   1.0000000   8.0000000

  Atom        11          12          13
 IAtWgt=           1          16           1
 AtmWgt=   1.0078250  15.9949146   1.0078250
 NucSpn=           1           0           1
 AtZEff=   0.0000000   0.0000000   0.0000000
 NQMom=    0.0000000   0.0000000   0.0000000
 NMagM=    2.7928460   0.0000000   2.7928460
 AtZNuc=   1.0000000   8.0000000   1.0000000
 Leave Link  101 at Mon Nov 10 19:33:08 2025, MaxMem=    33554432 cpu:         0.0
 (Enter /opt/programs/gaussian/g09/d_pgi133/l202.exe)
                          Input orientation:                          
 ---------------------------------------------------------------------
 Center     Atomic      Atomic             Coordinates (Angstroms)
 Number     Number       Type             X           Y           Z
 ---------------------------------------------------------------------
      1          6           0        1.393929    0.504534    0.242079
      2          1           0        1.986684    1.396485   -0.014562
      3          1           0        1.399263    0.415397    1.340940
      4          6           0       -0.035037    0.677496   -0.260002
      5          1           0       -0.028940    0.558151   -1.351195
      6          1           0       -0.375267    1.697942   -0.047403
      7          6           0       -1.021219   -0.304752    0.375815
      8          1           0       -0.686545   -1.337002    0.198123
      9          1           0       -1.043900   -0.152106    1.460860
     10          8           0        1.938692   -0.659388   -0.376917
     11          1           0        2.809089   -0.824885    0.006487
     12          8           0       -2.359200   -0.102944   -0.066150
     13          1           0       -2.389923   -0.327635   -1.005341
 ---------------------------------------------------------------------
                    Distance matrix (angstroms):
                    1          2          3          4          5
     1  C    0.000000
     2  H    1.101272   0.000000
     3  H    1.102483   1.773410   0.000000
     4  C    1.524449   2.159755   2.165393   0.000000
     5  H    2.136809   2.559713   3.050858   1.097717   0.000000
     6  H    2.153620   2.381337   2.592561   1.096478   1.766052
     7  C    2.550641   3.477655   2.703482   1.530238   2.170664
     8  H    2.778769   3.829274   2.954239   2.166228   2.534647
     9  H    2.803500   3.709372   2.511073   2.160419   3.072826
    10  O    1.426407   2.088114   2.096945   2.386741   2.510616
    11  H    1.955898   2.368814   2.303622   3.227571   3.436640
    12  O    3.814448   4.597571   4.046557   2.459349   2.741988
    13  H    4.070147   4.807174   4.518303   2.666703   2.545284
                    6          7          8          9         10
     6  H    0.000000
     7  C    2.146427   0.000000
     8  H    3.060729   1.099600   0.000000
     9  H    2.478831   1.095964   1.768102   0.000000
    10  O    3.319637   3.074646   2.771588   3.539861   0.000000
    11  H    4.062965   3.883066   3.538141   4.172931   0.965391
    12  O    2.679465   1.423465   2.095355   2.015984   4.344891
    13  H    3.013212   1.944599   2.317033   2.815091   4.386557
                   11         12         13
    11  H    0.000000
    12  O    5.218974   0.000000
    13  H    5.319848   0.966183   0.000000
 Stoichiometry    C3H8O2
 Framework group  C1[X(C3H8O2)]
 Deg. of freedom    33
 Full point group                 C1      NOp   1
 Largest Abelian subgroup         C1      NOp   1
 Largest concise Abelian subgroup C1      NOp   1
                         Standard orientation:                         
 ---------------------------------------------------------------------
 Center     Atomic      Atomic             Coordinates (Angstroms)
 Number     Number       Type             X           Y           Z
 ---------------------------------------------------------------------
      1          6           0        1.379765    0.514776    0.247256
      2          1           0        1.976673    1.383552   -0.071695
      3          1           0        1.362522    0.518837    1.349597
      4          6           0       -0.038731    0.640572   -0.296792
      5          1           0       -0.009980    0.429457   -1.373633
      6          1           0       -0.384439    1.674350   -0.178241
      7          6           0       -1.036704   -0.287267    0.399480
      8          1           0       -0.697258   -1.329872    0.316588
      9          1           0       -1.081947   -0.043537    1.467041
     10          8           0        1.938513   -0.695718   -0.259834
     11          1           0        2.801001   -0.825714    0.153924
     12          8           0       -2.365509   -0.127386   -0.085257
     13          1           0       -2.376587   -0.430730   -1.002518
 ---------------------------------------------------------------------
 Rotational constants (GHZ):     13.7162250      2.3123065      2.1825287
 Leave Link  202 at Mon Nov 10 19:33:08 2025, MaxMem=    33554432 cpu:         0.0
 (Enter /opt/programs/gaussian/g09/d_pgi133/l301.exe)
 Standard basis: 6-311++G(d,p) (5D, 7F)
 Ernie: Thresh=  0.10000D-02 Tol=  0.10000D-05 Strict=F.
 There are   171 symmetry adapted cartesian basis functions of A   symmetry.
 There are   166 symmetry adapted basis functions of A   symmetry.
   166 basis functions,   252 primitive gaussians,   171 cartesian basis functions
    21 alpha electrons       21 beta electrons
       nuclear repulsion energy       187.0194469050 Hartrees.
 IExCor= 4336 DFT=T Ex+Corr=M062X ExCW=0 ScaHFX=  0.540000
 ScaDFX=  1.000000  1.000000  1.000000  1.000000 ScalE2=  1.000000  1.000000
 IRadAn=      0 IRanWt=     -1 IRanGd=            0 ICorTp=0 IEmpDi=  4
 NAtoms=   13 NActive=   13 NUniq=   13 SFac= 1.00D+00 NAtFMM=   60 NAOKFM=F Big=F
 Integral buffers will be    131072 words long.
 Raffenetti 2 integral format.
 Two-electron integral symmetry is turned on.
 Leave Link  301 at Mon Nov 10 19:33:08 2025, MaxMem=    33554432 cpu:         0.0
 (Enter /opt/programs/gaussian/g09/d_pgi133/l302.exe)
 NPDir=0 NMtPBC=     1 NCelOv=     1 NCel=       1 NClECP=     1 NCelD=      1
         NCelK=      1 NCelE2=     1 NClLst=     1 CellRange=     0.0.
 One-electron integrals computed using PRISM.
 NBasis=   166 RedAO= T EigKep=  3.67D-05  NBF=   166
 NBsUse=   166 1.00D-06 EigRej= -1.00D+00 NBFU=   166
 Precomputing XC quadrature grid using
 IXCGrd= 4 IRadAn=           0 IRanWt=          -1 IRanGd=           0 AccXCQ= 0.00D+00.
 Generated NRdTot=       0 NPtTot=           0 NUsed=           0 NTot=          32
 NSgBfM=   171   171   171   171   171 MxSgAt=    13 MxSgA2=    13.
 Leave Link  302 at Mon Nov 10 19:33:08 2025, MaxMem=    33554432 cpu:         0.1
 (Enter /opt/programs/gaussian/g09/d_pgi133/l303.exe)
 DipDrv:  MaxL=1.
 Leave Link  303 at Mon Nov 10 19:33:08 2025, MaxMem=    33554432 cpu:         0.0
 (Enter /opt/programs/gaussian/g09/d_pgi133/l401.exe)
 ExpMin= 3.60D-02 ExpMax= 8.59D+03 ExpMxC= 1.30D+03 IAcc=3 IRadAn=         5 AccDes= 0.00D+00
 Harris functional with IExCor= 1009 and IRadAn=       5 diagonalized for initial guess.
 HarFok:  IExCor= 1009 AccDes= 0.00D+00 IRadAn=         5 IDoV= 1 UseB2=F ITyADJ=14
 ICtDFT=  3500011 ScaDFX=  1.000000  1.000000  1.000000  1.000000
 FoFCou: FMM=F IPFlag=           0 FMFlag=      100000 FMFlg1=           0
         NFxFlg=           0 DoJE=T BraDBF=F KetDBF=T FulRan=T
         wScrn=  0.000000 ICntrl=     500 IOpCl=  0 I1Cent=   200000004 NGrid=           0
         NMat0=    1 NMatS0=      1 NMatT0=    0 NMatD0=    1 NMtDS0=    0 NMtDT0=    0
 Petite list used in FoFCou.
 Harris En= -269.443646895784    
 JPrj=0 DoOrth=F DoCkMO=F.
 Leave Link  401 at Mon Nov 10 19:33:10 2025, MaxMem=    33554432 cpu:         1.5
 (Enter /opt/programs/gaussian/g09/d_pgi133/l502.exe)
 Closed shell SCF:
 Using DIIS extrapolation, IDIIS=  1040.
 Integral symmetry usage will be decided dynamically.
 IVT=      108587 IEndB=      108587 NGot=    33554432 MDV=    33491898
 LenX=    33491898 LenY=    33462216
 Requested convergence on RMS density matrix=1.00D-08 within 128 cycles.
 Requested convergence on MAX density matrix=1.00D-06.
 Requested convergence on             energy=1.00D-06.
 No special actions if energy rises.
 Fock matrices will be formed incrementally for  20 cycles.

 Cycle   1  Pass 1  IDiag  1:
 FoFJK:  IHMeth= 1 ICntrl=       0 DoSepK=F KAlg= 0 I1Cent=   0 FoldK=F
 IRaf= 980000000 NMat=   1 IRICut=       1 DoRegI=T DoRafI=F ISym2E= 0.
 FoFCou: FMM=F IPFlag=           0 FMFlag=      100000 FMFlg1=           0
         NFxFlg=           0 DoJE=F BraDBF=F KetDBF=F FulRan=T
         wScrn=  0.000000 ICntrl=       0 IOpCl=  0 I1Cent=           0 NGrid=           0
         NMat0=    1 NMatS0=      1 NMatT0=    0 NMatD0=    1 NMtDS0=    0 NMtDT0=    0
 Symmetry not used in FoFCou.
 E= -269.362143561356    
 DIIS: error= 3.01D-02 at cycle   1 NSaved=   1.
 NSaved= 1 IEnMin= 1 EnMin= -269.362143561356     IErMin= 1 ErrMin= 3.01D-02
 ErrMax= 3.01D-02  0.00D+00 EMaxC= 1.00D-01 BMatC= 2.35D-01 BMatP= 2.35D-01
 IDIUse=3 WtCom= 6.99D-01 WtEn= 3.01D-01
 Coeff-Com:  0.100D+01
 Coeff-En:   0.100D+01
 Coeff:      0.100D+01
 Gap=     0.297 Goal=   None    Shift=    0.000
 GapD=    0.297 DampG=1.000 DampE=0.500 DampFc=0.5000 IDamp=-1.
 Damping current iteration by 5.00D-01
 RMSDP=6.28D-03 MaxDP=1.31D-01              OVMax= 1.36D-01

 Cycle   2  Pass 1  IDiag  1:
 RMSU=  3.13D-03    CP:  9.87D-01
 E= -269.443442376560     Delta-E=       -0.081298815204 Rises=F Damp=T
 DIIS: error= 6.28D-03 at cycle   2 NSaved=   2.
 NSaved= 2 IEnMin= 2 EnMin= -269.443442376560     IErMin= 2 ErrMin= 6.28D-03
 ErrMax= 6.28D-03  0.00D+00 EMaxC= 1.00D-01 BMatC= 1.52D-02 BMatP= 2.35D-01
 IDIUse=3 WtCom= 9.37D-01 WtEn= 6.28D-02
 Coeff-Com: -0.377D-01 0.104D+01
 Coeff-En:   0.000D+00 0.100D+01
 Coeff:     -0.353D-01 0.104D+01
 Gap=     0.342 Goal=   None    Shift=    0.000
 RMSDP=2.31D-03 MaxDP=1.29D-01 DE=-8.13D-02 OVMax= 7.55D-02

 Cycle   3  Pass 1  IDiag  1:
 RMSU=  2.18D-03    CP:  9.50D-01  8.33D-01
 E= -269.528090519427     Delta-E=       -0.084648142867 Rises=F Damp=F
 DIIS: error= 5.19D-03 at cycle   3 NSaved=   3.
 NSaved= 3 IEnMin= 3 EnMin= -269.528090519427     IErMin= 3 ErrMin= 5.19D-03
 ErrMax= 5.19D-03  0.00D+00 EMaxC= 1.00D-01 BMatC= 4.00D-03 BMatP= 1.52D-02
 IDIUse=3 WtCom= 9.48D-01 WtEn= 5.19D-02
 Coeff-Com: -0.768D-01 0.316D+00 0.761D+00
 Coeff-En:   0.000D+00 0.000D+00 0.100D+01
 Coeff:     -0.728D-01 0.300D+00 0.773D+00
 Gap=     0.335 Goal=   None    Shift=    0.000
 RMSDP=3.93D-04 MaxDP=1.28D-02 DE=-8.46D-02 OVMax= 1.18D-02

 Cycle   4  Pass 1  IDiag  1:
 RMSU=  3.46D-04    CP:  9.52D-01  8.89D-01  9.75D-01
 E= -269.530181240246     Delta-E=       -0.002090720819 Rises=F Damp=F
 DIIS: error= 1.90D-03 at cycle   4 NSaved=   4.
 NSaved= 4 IEnMin= 4 EnMin= -269.530181240246     IErMin= 4 ErrMin= 1.90D-03
 ErrMax= 1.90D-03  0.00D+00 EMaxC= 1.00D-01 BMatC= 7.86D-04 BMatP= 4.00D-03
 IDIUse=3 WtCom= 9.81D-01 WtEn= 1.90D-02
 Coeff-Com: -0.312D-01 0.832D-01 0.376D+00 0.572D+00
 Coeff-En:   0.000D+00 0.000D+00 0.123D+00 0.877D+00
 Coeff:     -0.306D-01 0.816D-01 0.372D+00 0.577D+00
 Gap=     0.333 Goal=   None    Shift=    0.000
 RMSDP=1.54D-04 MaxDP=3.53D-03 DE=-2.09D-03 OVMax= 4.74D-03

 Cycle   5  Pass 1  IDiag  1:
 RMSU=  1.03D-04    CP:  9.50D-01  8.79D-01  9.84D-01  7.02D-01
 E= -269.530813279968     Delta-E=       -0.000632039723 Rises=F Damp=F
 DIIS: error= 1.73D-04 at cycle   5 NSaved=   5.
 NSaved= 5 IEnMin= 5 EnMin= -269.530813279968     IErMin= 5 ErrMin= 1.73D-04
 ErrMax= 1.73D-04  0.00D+00 EMaxC= 1.00D-01 BMatC= 9.25D-06 BMatP= 7.86D-04
 IDIUse=3 WtCom= 9.98D-01 WtEn= 1.73D-03
 Coeff-Com: -0.367D-02 0.516D-02 0.529D-01 0.146D+00 0.800D+00
 Coeff-En:   0.000D+00 0.000D+00 0.000D+00 0.000D+00 0.100D+01
 Coeff:     -0.366D-02 0.515D-02 0.528D-01 0.146D+00 0.800D+00
 Gap=     0.333 Goal=   None    Shift=    0.000
 RMSDP=3.72D-05 MaxDP=8.02D-04 DE=-6.32D-04 OVMax= 6.29D-04

 Cycle   6  Pass 1  IDiag  1:
 RMSU=  2.87D-05    CP:  9.50D-01  8.75D-01  9.90D-01  7.35D-01  9.11D-01
 E= -269.530820966768     Delta-E=       -0.000007686799 Rises=F Damp=F
 DIIS: error= 2.17D-05 at cycle   6 NSaved=   6.
 NSaved= 6 IEnMin= 6 EnMin= -269.530820966768     IErMin= 6 ErrMin= 2.17D-05
 ErrMax= 2.17D-05  0.00D+00 EMaxC= 1.00D-01 BMatC= 1.51D-07 BMatP= 9.25D-06
 IDIUse=1 WtCom= 1.00D+00 WtEn= 0.00D+00
 Coeff-Com:  0.751D-03-0.210D-02-0.685D-02-0.422D-02 0.566D-01 0.956D+00
 Coeff:      0.751D-03-0.210D-02-0.685D-02-0.422D-02 0.566D-01 0.956D+00
 Gap=     0.333 Goal=   None    Shift=    0.000
 RMSDP=1.04D-05 MaxDP=2.96D-04 DE=-7.69D-06 OVMax= 1.31D-04

 Cycle   7  Pass 1  IDiag  1:
 RMSU=  6.36D-06    CP:  9.50D-01  8.73D-01  9.90D-01  7.45D-01  9.49D-01
                    CP:  1.03D+00
 E= -269.530821148582     Delta-E=       -0.000000181814 Rises=F Damp=F
 DIIS: error= 1.03D-05 at cycle   7 NSaved=   7.
 NSaved= 7 IEnMin= 7 EnMin= -269.530821148582     IErMin= 7 ErrMin= 1.03D-05
 ErrMax= 1.03D-05  0.00D+00 EMaxC= 1.00D-01 BMatC= 2.96D-08 BMatP= 1.51D-07
 IDIUse=1 WtCom= 1.00D+00 WtEn= 0.00D+00
 Coeff-Com:  0.500D-03-0.106D-02-0.578D-02-0.107D-01-0.332D-01 0.310D+00
 Coeff-Com:  0.740D+00
 Coeff:      0.500D-03-0.106D-02-0.578D-02-0.107D-01-0.332D-01 0.310D+00
 Coeff:      0.740D+00
 Gap=     0.333 Goal=   None    Shift=    0.000
 RMSDP=2.30D-06 MaxDP=4.61D-05 DE=-1.82D-07 OVMax= 3.92D-05

 Cycle   8  Pass 1  IDiag  1:
 RMSU=  9.50D-07    CP:  9.50D-01  8.73D-01  9.90D-01  7.44D-01  9.51D-01
                    CP:  1.08D+00  8.86D-01
 E= -269.530821176069     Delta-E=       -0.000000027488 Rises=F Damp=F
 DIIS: error= 3.25D-06 at cycle   8 NSaved=   8.
 NSaved= 8 IEnMin= 8 EnMin= -269.530821176069     IErMin= 8 ErrMin= 3.25D-06
 ErrMax= 3.25D-06  0.00D+00 EMaxC= 1.00D-01 BMatC= 3.14D-09 BMatP= 2.96D-08
 IDIUse=1 WtCom= 1.00D+00 WtEn= 0.00D+00
 Coeff-Com:  0.138D-03-0.269D-03-0.179D-02-0.382D-02-0.168D-01 0.601D-01
 Coeff-Com:  0.292D+00 0.670D+00
 Coeff:      0.138D-03-0.269D-03-0.179D-02-0.382D-02-0.168D-01 0.601D-01
 Coeff:      0.292D+00 0.670D+00
 Gap=     0.333 Goal=   None    Shift=    0.000
 RMSDP=5.43D-07 MaxDP=1.95D-05 DE=-2.75D-08 OVMax= 1.39D-05

 Cycle   9  Pass 1  IDiag  1:
 RMSU=  3.42D-07    CP:  9.50D-01  8.73D-01  9.90D-01  7.45D-01  9.52D-01
                    CP:  1.08D+00  9.35D-01  9.31D-01
 E= -269.530821178616     Delta-E=       -0.000000002546 Rises=F Damp=F
 DIIS: error= 7.80D-07 at cycle   9 NSaved=   9.
 NSaved= 9 IEnMin= 9 EnMin= -269.530821178616     IErMin= 9 ErrMin= 7.80D-07
 ErrMax= 7.80D-07  0.00D+00 EMaxC= 1.00D-01 BMatC= 2.21D-10 BMatP= 3.14D-09
 IDIUse=1 WtCom= 1.00D+00 WtEn= 0.00D+00
 Coeff-Com: -0.947D-06 0.658D-05-0.948D-04-0.318D-03-0.266D-02-0.684D-02
 Coeff-Com:  0.330D-01 0.223D+00 0.754D+00
 Coeff:     -0.947D-06 0.658D-05-0.948D-04-0.318D-03-0.266D-02-0.684D-02
 Coeff:      0.330D-01 0.223D+00 0.754D+00
 Gap=     0.333 Goal=   None    Shift=    0.000
 RMSDP=1.35D-07 MaxDP=4.59D-06 DE=-2.55D-09 OVMax= 4.09D-06

 Cycle  10  Pass 1  IDiag  1:
 RMSU=  9.13D-08    CP:  9.50D-01  8.73D-01  9.90D-01  7.45D-01  9.51D-01
                    CP:  1.08D+00  9.43D-01  9.90D-01  1.04D+00
 E= -269.530821178778     Delta-E=       -0.000000000163 Rises=F Damp=F
 DIIS: error= 3.82D-07 at cycle  10 NSaved=  10.
 NSaved=10 IEnMin=10 EnMin= -269.530821178778     IErMin=10 ErrMin= 3.82D-07
 ErrMax= 3.82D-07  0.00D+00 EMaxC= 1.00D-01 BMatC= 3.83D-11 BMatP= 2.21D-10
 IDIUse=1 WtCom= 1.00D+00 WtEn= 0.00D+00
 Coeff-Com: -0.144D-04 0.302D-04 0.140D-03 0.251D-03 0.582D-03-0.891D-02
 Coeff-Com: -0.185D-01 0.206D-01 0.337D+00 0.669D+00
 Coeff:     -0.144D-04 0.302D-04 0.140D-03 0.251D-03 0.582D-03-0.891D-02
 Coeff:     -0.185D-01 0.206D-01 0.337D+00 0.669D+00
 Gap=     0.333 Goal=   None    Shift=    0.000
 RMSDP=6.42D-08 MaxDP=2.07D-06 DE=-1.63D-10 OVMax= 1.53D-06

 Cycle  11  Pass 1  IDiag  1:
 RMSU=  2.73D-08    CP:  9.50D-01  8.73D-01  9.90D-01  7.45D-01  9.51D-01
                    CP:  1.08D+00  9.49D-01  1.01D+00  1.10D+00  8.93D-01
 E= -269.530821178811     Delta-E=       -0.000000000032 Rises=F Damp=F
 DIIS: error= 5.20D-08 at cycle  11 NSaved=  11.
 NSaved=11 IEnMin=11 EnMin= -269.530821178811     IErMin=11 ErrMin= 5.20D-08
 ErrMax= 5.20D-08  0.00D+00 EMaxC= 1.00D-01 BMatC= 7.92D-13 BMatP= 3.83D-11
 IDIUse=1 WtCom= 1.00D+00 WtEn= 0.00D+00
 Coeff-Com: -0.158D-05 0.345D-05 0.249D-04 0.451D-04 0.190D-03-0.753D-03
 Coeff-Com: -0.463D-02-0.113D-01-0.243D-02 0.101D+00 0.918D+00
 Coeff:     -0.158D-05 0.345D-05 0.249D-04 0.451D-04 0.190D-03-0.753D-03
 Coeff:     -0.463D-02-0.113D-01-0.243D-02 0.101D+00 0.918D+00
 Gap=     0.333 Goal=   None    Shift=    0.000
 RMSDP=1.78D-08 MaxDP=8.70D-07 DE=-3.23D-11 OVMax= 5.60D-07

 Cycle  12  Pass 1  IDiag  1:
 RMSU=  9.95D-09    CP:  9.50D-01  8.73D-01  9.90D-01  7.45D-01  9.51D-01
                    CP:  1.08D+00  9.49D-01  1.01D+00  1.12D+00  9.61D-01
                    CP:  1.08D+00
 E= -269.530821178813     Delta-E=       -0.000000000002 Rises=F Damp=F
 DIIS: error= 1.24D-08 at cycle  12 NSaved=  12.
 NSaved=12 IEnMin=12 EnMin= -269.530821178813     IErMin=12 ErrMin= 1.24D-08
 ErrMax= 1.24D-08  0.00D+00 EMaxC= 1.00D-01 BMatC= 5.14D-14 BMatP= 7.92D-13
 IDIUse=1 WtCom= 1.00D+00 WtEn= 0.00D+00
 Coeff-Com:  0.853D-06-0.165D-05-0.593D-05-0.120D-04-0.218D-04 0.522D-03
 Coeff-Com:  0.730D-03-0.298D-02-0.233D-01-0.341D-01 0.111D+00 0.948D+00
 Coeff:      0.853D-06-0.165D-05-0.593D-05-0.120D-04-0.218D-04 0.522D-03
 Coeff:      0.730D-03-0.298D-02-0.233D-01-0.341D-01 0.111D+00 0.948D+00
 Gap=     0.333 Goal=   None    Shift=    0.000
 RMSDP=4.97D-09 MaxDP=1.77D-07 DE=-2.27D-12 OVMax= 1.82D-07

 SCF Done:  E(RM062X) =  -269.530821179     A.U. after   12 cycles
            NFock= 12  Conv=0.50D-08     -V/T= 2.0039
 KE= 2.684940771561D+02 PE=-1.005689267374D+03 EE= 2.806449221344D+02
 Leave Link  502 at Mon Nov 10 19:33:34 2025, MaxMem=    33554432 cpu:        24.7
 (Enter /opt/programs/gaussian/g09/d_pgi133/l601.exe)
 Copying SCF densities to generalized density rwf, IOpCl= 0 IROHF=0.

 **********************************************************************

            Population analysis using the SCF density.

 **********************************************************************

 Orbital symmetries:
       Occupied  (A) (A) (A) (A) (A) (A) (A) (A) (A) (A) (A) (A)
                 (A) (A) (A) (A) (A) (A) (A) (A) (A)
       Virtual   (A) (A) (A) (A) (A) (A) (A) (A) (A) (A) (A) (A)
                 (A) (A) (A) (A) (A) (A) (A) (A) (A) (A) (A) (A)
                 (A) (A) (A) (A) (A) (A) (A) (A) (A) (A) (A) (A)
                 (A) (A) (A) (A) (A) (A) (A) (A) (A) (A) (A) (A)
                 (A) (A) (A) (A) (A) (A) (A) (A) (A) (A) (A) (A)
                 (A) (A) (A) (A) (A) (A) (A) (A) (A) (A) (A) (A)
                 (A) (A) (A) (A) (A) (A) (A) (A) (A) (A) (A) (A)
                 (A) (A) (A) (A) (A) (A) (A) (A) (A) (A) (A) (A)
                 (A) (A) (A) (A) (A) (A) (A) (A) (A) (A) (A) (A)
                 (A) (A) (A) (A) (A) (A) (A) (A) (A) (A) (A) (A)
                 (A) (A) (A) (A) (A) (A) (A) (A) (A) (A) (A) (A)
                 (A) (A) (A) (A) (A) (A) (A) (A) (A) (A) (A) (A)
                 (A)
 The electronic state is 1-A.
 Alpha  occ. eigenvalues --  -19.62981 -19.62030 -10.59378 -10.58139 -10.53716
 Alpha  occ. eigenvalues --   -1.15101  -1.14118  -0.87692  -0.76329  -0.68343
 Alpha  occ. eigenvalues --   -0.60991  -0.58100  -0.54209  -0.51382  -0.48876
 Alpha  occ. eigenvalues --   -0.45972  -0.44346  -0.40882  -0.39185  -0.36695
 Alpha  occ. eigenvalues --   -0.33991
 Alpha virt. eigenvalues --   -0.00670   0.00609   0.01491   0.01785   0.04280
 Alpha virt. eigenvalues --    0.04395   0.04826   0.05725   0.07590   0.09487
 Alpha virt. eigenvalues --    0.10344   0.11364   0.11935   0.12401   0.13148
 Alpha virt. eigenvalues --    0.13346   0.14129   0.15135   0.16795   0.17009
 Alpha virt. eigenvalues --    0.20106   0.20974   0.21407   0.21765   0.23238
 Alpha virt. eigenvalues --    0.24081   0.25743   0.26530   0.27634   0.29039
 Alpha virt. eigenvalues --    0.29513   0.30695   0.31315   0.32434   0.33864
 Alpha virt. eigenvalues --    0.34625   0.34961   0.38819   0.40548   0.41386
 Alpha virt. eigenvalues --    0.47421   0.49160   0.51064   0.52798   0.58033
 Alpha virt. eigenvalues --    0.60006   0.60611   0.63605   0.65673   0.68085
 Alpha virt. eigenvalues --    0.69704   0.71136   0.72173   0.75279   0.76164
 Alpha virt. eigenvalues --    0.76933   0.78529   0.92637   0.96234   1.01114
 Alpha virt. eigenvalues --    1.04552   1.05163   1.13017   1.15413   1.18293
 Alpha virt. eigenvalues --    1.21494   1.24027   1.28199   1.30579   1.33295
 Alpha virt. eigenvalues --    1.40569   1.41427   1.45055   1.48292   1.52999
 Alpha virt. eigenvalues --    1.55731   1.59132   1.60259   1.60862   1.63447
 Alpha virt. eigenvalues --    1.63914   1.65486   1.69427   1.72213   1.75482
 Alpha virt. eigenvalues --    1.76429   1.81217   1.82418   1.85647   1.87176
 Alpha virt. eigenvalues --    1.97379   2.01689   2.04716   2.10423   2.11100
 Alpha virt. eigenvalues --    2.14798   2.16957   2.25396   2.27378   2.34495
 Alpha virt. eigenvalues --    2.36105   2.48397   2.50626   2.52843   2.54445
 Alpha virt. eigenvalues --    2.56930   2.60705   2.61427   2.64961   2.68343
 Alpha virt. eigenvalues --    2.72242   2.77234   2.81332   2.87334   2.91511
 Alpha virt. eigenvalues --    2.97700   3.02072   3.12061   3.17552   3.19988
 Alpha virt. eigenvalues --    3.25059   3.26996   3.32442   3.38013   3.43839
 Alpha virt. eigenvalues --    3.78926   3.81928   3.87222   3.92192   3.93932
 Alpha virt. eigenvalues --    4.03707   4.05752   4.18295   4.34820   5.17104
 Alpha virt. eigenvalues --    5.19741   5.49672   5.50425   5.73375   5.74690
 Alpha virt. eigenvalues --   23.89804  23.93186  23.98230  50.02616  50.03194
          Condensed to atoms (all electrons):
               1          2          3          4          5          6
     1  C    5.537776   0.420465   0.343144   0.018281  -0.095620  -0.007107
     2  H    0.420465   0.643174  -0.090850  -0.099885  -0.002501   0.005508
     3  H    0.343144  -0.090850   0.674380   0.020354   0.007194  -0.007683
     4  C    0.018281  -0.099885   0.020354   5.801865   0.455001   0.378509
     5  H   -0.095620  -0.002501   0.007194   0.455001   0.558951  -0.061741
     6  H   -0.007107   0.005508  -0.007683   0.378509  -0.061741   0.553455
     7  C   -0.036339   0.020287  -0.022852  -0.138054   0.012349  -0.061215
     8  H    0.004891   0.001962  -0.001336   0.011258  -0.037575   0.024221
     9  H   -0.020230  -0.000751   0.000277  -0.011654   0.017620  -0.025982
    10  O    0.164293  -0.056288  -0.061953  -0.047308  -0.031271   0.024586
    11  H    0.022566  -0.000425  -0.015103  -0.016640   0.002426  -0.003108
    12  O    0.035866  -0.001224   0.001118  -0.090831  -0.030054   0.021926
    13  H    0.001691  -0.000518   0.000356   0.018316   0.009844  -0.007024
               7          8          9         10         11         12
     1  C   -0.036339   0.004891  -0.020230   0.164293   0.022566   0.035866
     2  H    0.020287   0.001962  -0.000751  -0.056288  -0.000425  -0.001224
     3  H   -0.022852  -0.001336   0.000277  -0.061953  -0.015103   0.001118
     4  C   -0.138054   0.011258  -0.011654  -0.047308  -0.016640  -0.090831
     5  H    0.012349  -0.037575   0.017620  -0.031271   0.002426  -0.030054
     6  H   -0.061215   0.024221  -0.025982   0.024586  -0.003108   0.021926
     7  C    5.677999   0.297068   0.424105  -0.052787   0.007381   0.221169
     8  H    0.297068   0.640565  -0.086926   0.026020  -0.002956  -0.018581
     9  H    0.424105  -0.086926   0.607592  -0.009074   0.001413  -0.093943
    10  O   -0.052787   0.026020  -0.009074   8.088450   0.229129  -0.000983
    11  H    0.007381  -0.002956   0.001413   0.229129   0.509189   0.000054
    12  O    0.221169  -0.018581  -0.093943  -0.000983   0.000054   7.968015
    13  H   -0.046632  -0.024493   0.021607  -0.000595  -0.000246   0.257650
              13
     1  C    0.001691
     2  H   -0.000518
     3  H    0.000356
     4  C    0.018316
     5  H    0.009844
     6  H   -0.007024
     7  C   -0.046632
     8  H   -0.024493
     9  H    0.021607
    10  O   -0.000595
    11  H   -0.000246
    12  O    0.257650
    13  H    0.519452
 Mulliken charges:
               1
     1  C   -0.389677
     2  H    0.161045
     3  H    0.152953
     4  C   -0.299211
     5  H    0.195376
     6  H    0.165655
     7  C   -0.302479
     8  H    0.165881
     9  H    0.175945
    10  O   -0.272218
    11  H    0.266319
    12  O   -0.270182
    13  H    0.250592
 Sum of Mulliken charges =   0.00000
 Mulliken charges with hydrogens summed into heavy atoms:
               1
     1  C   -0.075679
     4  C    0.061821
     7  C    0.039347
    10  O   -0.005899
    12  O   -0.019590
 Electronic spatial extent (au):  <R**2>=            569.5955
 Charge=              0.0000 electrons
 Dipole moment (field-independent basis, Debye):
    X=              2.3190    Y=              0.4716    Z=              0.2074  Tot=              2.3755
 Quadrupole moment (field-independent basis, Debye-Ang):
   XX=            -33.0830   YY=            -32.3756   ZZ=            -30.1129
   XY=              1.8917   XZ=              5.7792   YZ=              0.0601
 Traceless Quadrupole moment (field-independent basis, Debye-Ang):
   XX=             -1.2259   YY=             -0.5184   ZZ=              1.7443
   XY=              1.8917   XZ=              5.7792   YZ=              0.0601
 Octapole moment (field-independent basis, Debye-Ang**2):
  XXX=             39.6324  YYY=             -2.2011  ZZZ=             -2.0680  XYY=              0.3589
  XXY=             -6.7080  XXZ=             -2.4999  XZZ=             -6.3610  YZZ=             -1.5578
  YYZ=             -0.2651  XYZ=             -4.4812
 Hexadecapole moment (field-independent basis, Debye-Ang**3):
 XXXX=           -495.7510 YYYY=           -105.7609 ZZZZ=            -69.8421 XXXY=            -15.8294
 XXXZ=             39.4037 YYYX=             -3.1779 YYYZ=              0.7067 ZZZX=              7.3707
 ZZZY=              2.2555 XXYY=           -101.0997 XXZZ=            -89.9315 YYZZ=            -31.8715
 XXYZ=              0.6680 YYXZ=              2.2069 ZZXY=              1.6293
 N-N= 1.870194469050D+02 E-N=-1.005689267830D+03  KE= 2.684940771561D+02
 No NMR shielding tensors so no spin-rotation constants.
 Leave Link  601 at Mon Nov 10 19:33:34 2025, MaxMem=    33554432 cpu:         0.0
 (Enter /opt/programs/gaussian/g09/d_pgi133/l9999.exe)
 1\1\GINC-EXADE5\SP\RM062X\6-311++G(d,p)\C3H8O2\APINTO\10-Nov-2025\0\\#
 p M062X/6-311++G(d,p)\\SP\\0,1\C,0,1.393929,0.504534,0.242079\H,0,1.98
 6684,1.396485,-0.014562\H,0,1.399263,0.415397,1.34094\C,0,-0.035037,0.
 677496,-0.260002\H,0,-0.02894,0.558151,-1.351195\H,0,-0.375267,1.69794
 2,-0.047403\C,0,-1.021219,-0.304752,0.375815\H,0,-0.686545,-1.337002,0
 .198123\H,0,-1.0439,-0.152106,1.46086\O,0,1.938692,-0.659388,-0.376917
 \H,0,2.809089,-0.824885,0.006487\O,0,-2.3592,-0.102944,-0.06615\H,0,-2
 .389923,-0.327635,-1.005341\\Version=ES64L-G09RevD.01\State=1-A\HF=-26
 9.5308212\RMSD=4.971e-09\Dipole=0.9143755,0.176942,0.0781541\Quadrupol
 e=-0.7265349,-0.3832901,1.1098249,1.0364073,4.4417712,-0.1241073\PG=C0
 1 [X(C3H8O2)]\\@


 DESK:  A WASTEBASKET WITH DRAWERS.
 Job cpu time:       0 days  0 hours  0 minutes 26.4 seconds.
 File lengths (MBytes):  RWF=     16 Int=      0 D2E=      0 Chk=      2 Scr=      1
 Normal termination of Gaussian 09 at Mon Nov 10 19:33:34 2025.
