 Entering Gaussian System, Link 0=g09
 Input=xag.com
 Output=xag.log
 Initial command:
 /opt/programs/gaussian/g09/d_pgi133/l1.exe "/scratch/users/apinto/lixo/Gau-1263150.inp" -scrdir="/scratch/users/apinto/lixo/"
 Entering Link 1 = /opt/programs/gaussian/g09/d_pgi133/l1.exe PID=   1263152.
  
 Copyright (c) 1988,1990,1992,1993,1995,1998,2003,2009,2013,
            Gaussian, Inc.  All Rights Reserved.
  
 This is part of the Gaussian(R) 09 program.  It is based on
 the Gaussian(R) 03 system (copyright 2003, Gaussian, Inc.),
 the Gaussian(R) 98 system (copyright 1998, Gaussian, Inc.),
 the Gaussian(R) 94 system (copyright 1995, Gaussian, Inc.),
 the Gaussian 92(TM) system (copyright 1992, Gaussian, Inc.),
 the Gaussian 90(TM) system (copyright 1990, Gaussian, Inc.),
 the Gaussian 88(TM) system (copyright 1988, Gaussian, Inc.),
 the Gaussian 86(TM) system (copyright 1986, Carnegie Mellon
 University), and the Gaussian 82(TM) system (copyright 1983,
 Carnegie Mellon University). Gaussian is a federally registered
 trademark of Gaussian, Inc.
  
 This software contains proprietary and confidential information,
 including trade secrets, belonging to Gaussian, Inc.
  
 This software is provided under written license and may be
 used, copied, transmitted, or stored only in accord with that
 written license.
  
 The following legend is applicable only to US Government
 contracts under FAR:
  
                    RESTRICTED RIGHTS LEGEND
  
 Use, reproduction and disclosure by the US Government is
 subject to restrictions as set forth in subparagraphs (a)
 and (c) of the Commercial Computer Software - Restricted
 Rights clause in FAR 52.227-19.
  
 Gaussian, Inc.
 340 Quinnipiac St., Bldg. 40, Wallingford CT 06492
  
  
 ---------------------------------------------------------------
 Warning -- This program may not be used in any manner that
 competes with the business of Gaussian, Inc. or will provide
 assistance to any competitor of Gaussian, Inc.  The licensee
 of this program is prohibited from giving any competitor of
 Gaussian, Inc. access to this program.  By using this program,
 the user acknowledges that Gaussian, Inc. is engaged in the
 business of creating and licensing software in the field of
 computational chemistry and represents and warrants to the
 licensee that it is not a competitor of Gaussian, Inc. and that
 it will not use this program in any manner prohibited above.
 ---------------------------------------------------------------
  

 Cite this work as:
 Gaussian 09, Revision D.01,
 M. J. Frisch, G. W. Trucks, H. B. Schlegel, G. E. Scuseria, 
 M. A. Robb, J. R. Cheeseman, G. Scalmani, V. Barone, B. Mennucci, 
 G. A. Petersson, H. Nakatsuji, M. Caricato, X. Li, H. P. Hratchian, 
 A. F. Izmaylov, J. Bloino, G. Zheng, J. L. Sonnenberg, M. Hada, 
 M. Ehara, K. Toyota, R. Fukuda, J. Hasegawa, M. Ishida, T. Nakajima, 
 Y. Honda, O. Kitao, H. Nakai, T. Vreven, J. A. Montgomery, Jr., 
 J. E. Peralta, F. Ogliaro, M. Bearpark, J. J. Heyd, E. Brothers, 
 K. N. Kudin, V. N. Staroverov, T. Keith, R. Kobayashi, J. Normand, 
 K. Raghavachari, A. Rendell, J. C. Burant, S. S. Iyengar, J. Tomasi, 
 M. Cossi, N. Rega, J. M. Millam, M. Klene, J. E. Knox, J. B. Cross, 
 V. Bakken, C. Adamo, J. Jaramillo, R. Gomperts, R. E. Stratmann, 
 O. Yazyev, A. J. Austin, R. Cammi, C. Pomelli, J. W. Ochterski, 
 R. L. Martin, K. Morokuma, V. G. Zakrzewski, G. A. Voth, 
 P. Salvador, J. J. Dannenberg, S. Dapprich, A. D. Daniels, 
 O. Farkas, J. B. Foresman, J. V. Ortiz, J. Cioslowski, 
 and D. J. Fox, Gaussian, Inc., Wallingford CT, 2013.
 
 ******************************************
 Gaussian 09:  ES64L-G09RevD.01 24-Apr-2013
                10-Nov-2025 
 ******************************************
 ----------------------
 #p M062X/6-311++G(d,p)
 ----------------------
 1/38=1/1;
 2/12=2,17=6,18=5,40=1/2;
 3/5=4,6=6,7=1111,11=2,16=1,25=1,30=1,74=-55/1,2,3;
 4//1;
 5/5=2,38=5/2;
 6/7=2,8=2,9=2,10=2,28=1/1;
 99/5=1,9=1/99;
 Leave Link    1 at Mon Nov 10 19:34:54 2025, MaxMem=           0 cpu:         0.0
 (Enter /opt/programs/gaussian/g09/d_pgi133/l101.exe)
 --
 SP
 --
 Symbolic Z-matrix:
 Charge =  0 Multiplicity = 1
 C                     1.38966   0.43606   0.27427 
 H                     1.90337   1.40922   0.30552 
 H                     1.34048   0.06625   1.31176 
 C                    -0.0227    0.60907  -0.29632 
 H                     0.01732   0.34832  -1.36083 
 H                    -0.33225   1.65845  -0.234 
 C                    -1.07361  -0.23604   0.42656 
 H                    -0.78512  -1.29928   0.39468 
 H                    -1.11847   0.05361   1.48227 
 O                     2.09681  -0.47414  -0.56658 
 H                     2.95732  -0.64728  -0.16376 
 O                    -2.38737  -0.03504  -0.07832 
 H                    -2.39783  -0.34792  -0.99251 
 
 NAtoms=     13 NQM=       13 NQMF=       0 NMMI=      0 NMMIF=      0
                NMic=       0 NMicF=      0.
                    Isotopes and Nuclear Properties:
 (Nuclear quadrupole moments (NQMom) in fm**2, nuclear magnetic moments (NMagM)
  in nuclear magnetons)

  Atom         1           2           3           4           5           6           7           8           9          10
 IAtWgt=          12           1           1          12           1           1          12           1           1          16
 AtmWgt=  12.0000000   1.0078250   1.0078250  12.0000000   1.0078250   1.0078250  12.0000000   1.0078250   1.0078250  15.9949146
 NucSpn=           0           1           1           0           1           1           0           1           1           0
 AtZEff=   0.0000000   0.0000000   0.0000000   0.0000000   0.0000000   0.0000000   0.0000000   0.0000000   0.0000000   0.0000000
 NQMom=    0.0000000   0.0000000   0.0000000   0.0000000   0.0000000   0.0000000   0.0000000   0.0000000   0.0000000   0.0000000
 NMagM=    0.0000000   2.7928460   2.7928460   0.0000000   2.7928460   2.7928460   0.0000000   2.7928460   2.7928460   0.0000000
 AtZNuc=   6.0000000   1.0000000   1.0000000   6.0000000   1.0000000   1.0000000   6.0000000   1.0000000   1.0000000   8.0000000

  Atom        11          12          13
 IAtWgt=           1          16           1
 AtmWgt=   1.0078250  15.9949146   1.0078250
 NucSpn=           1           0           1
 AtZEff=   0.0000000   0.0000000   0.0000000
 NQMom=    0.0000000   0.0000000   0.0000000
 NMagM=    2.7928460   0.0000000   2.7928460
 AtZNuc=   1.0000000   8.0000000   1.0000000
 Leave Link  101 at Mon Nov 10 19:34:54 2025, MaxMem=    33554432 cpu:         0.0
 (Enter /opt/programs/gaussian/g09/d_pgi133/l202.exe)
                          Input orientation:                          
 ---------------------------------------------------------------------
 Center     Atomic      Atomic             Coordinates (Angstroms)
 Number     Number       Type             X           Y           Z
 ---------------------------------------------------------------------
      1          6           0        1.389660    0.436055    0.274266
      2          1           0        1.903370    1.409219    0.305522
      3          1           0        1.340476    0.066249    1.311761
      4          6           0       -0.022700    0.609067   -0.296320
      5          1           0        0.017315    0.348324   -1.360834
      6          1           0       -0.332248    1.658454   -0.234001
      7          6           0       -1.073606   -0.236036    0.426555
      8          1           0       -0.785118   -1.299279    0.394684
      9          1           0       -1.118465    0.053608    1.482272
     10          8           0        2.096814   -0.474136   -0.566583
     11          1           0        2.957323   -0.647277   -0.163756
     12          8           0       -2.387370   -0.035037   -0.078319
     13          1           0       -2.397826   -0.347918   -0.992513
 ---------------------------------------------------------------------
                    Distance matrix (angstroms):
                    1          2          3          4          5
     1  C    0.000000
     2  H    1.100874   0.000000
     3  H    1.102530   1.770010   0.000000
     4  C    1.533057   2.170761   2.176884   0.000000
     5  H    2.136488   2.731198   2.995511   1.096712   0.000000
     6  H    2.171995   2.313264   2.778939   1.095863   1.763062
     7  C    2.557846   3.403513   2.588968   1.530082   2.174016
     8  H    2.784878   3.817313   2.687721   2.168076   2.537782
     9  H    2.810024   3.514813   2.464878   2.161626   3.075728
    10  O    1.426724   2.084470   2.095767   2.395561   2.373097
    11  H    1.955259   2.358011   2.302274   3.236744   3.326840
    12  O    3.822591   4.543529   3.979877   2.460500   2.752148
    13  H    4.069938   4.824180   4.410909   2.653626   2.540338
                    6          7          8          9         10
     6  H    0.000000
     7  C    2.138934   0.000000
     8  H    3.057535   1.102146   0.000000
     9  H    2.477753   1.095648   1.767561   0.000000
    10  O    3.249445   3.330852   3.148083   3.848940   0.000000
    11  H    4.017786   4.094628   3.839639   4.451145   0.965776
    12  O    2.667522   1.421715   2.095054   2.013311   4.532010
    13  H    2.977832   1.944179   2.330285   2.814702   4.516540
                   11         12         13
    11  H    0.000000
    12  O    5.380323   0.000000
    13  H    5.427161   0.966310   0.000000
 Stoichiometry    C3H8O2
 Framework group  C1[X(C3H8O2)]
 Deg. of freedom    33
 Full point group                 C1      NOp   1
 Largest Abelian subgroup         C1      NOp   1
 Largest concise Abelian subgroup C1      NOp   1
                         Standard orientation:                         
 ---------------------------------------------------------------------
 Center     Atomic      Atomic             Coordinates (Angstroms)
 Number     Number       Type             X           Y           Z
 ---------------------------------------------------------------------
      1          6           0        1.344822    0.534854    0.153319
      2          1           0        1.854179    1.412481   -0.273590
      3          1           0        1.239238    0.720391    1.234984
      4          6           0       -0.034271    0.365003   -0.494379
      5          1           0        0.064845   -0.383199   -1.290086
      6          1           0       -0.348777    1.300594   -0.970481
      7          6           0       -1.121811   -0.046542    0.500125
      8          1           0       -0.829985   -0.979867    1.008523
      9          1           0       -1.225335    0.722374    1.273749
     10          8           0        2.098970   -0.650046   -0.097308
     11          1           0        2.936299   -0.578471    0.378593
     12          8           0       -2.406134   -0.156947   -0.099542
     13          1           0       -2.365597   -0.878256   -0.741278
 ---------------------------------------------------------------------
 Rotational constants (GHZ):     15.2077546      2.1440499      2.0992495
 Leave Link  202 at Mon Nov 10 19:34:54 2025, MaxMem=    33554432 cpu:         0.0
 (Enter /opt/programs/gaussian/g09/d_pgi133/l301.exe)
 Standard basis: 6-311++G(d,p) (5D, 7F)
 Ernie: Thresh=  0.10000D-02 Tol=  0.10000D-05 Strict=F.
 There are   171 symmetry adapted cartesian basis functions of A   symmetry.
 There are   166 symmetry adapted basis functions of A   symmetry.
   166 basis functions,   252 primitive gaussians,   171 cartesian basis functions
    21 alpha electrons       21 beta electrons
       nuclear repulsion energy       185.7669093486 Hartrees.
 IExCor= 4336 DFT=T Ex+Corr=M062X ExCW=0 ScaHFX=  0.540000
 ScaDFX=  1.000000  1.000000  1.000000  1.000000 ScalE2=  1.000000  1.000000
 IRadAn=      0 IRanWt=     -1 IRanGd=            0 ICorTp=0 IEmpDi=  4
 NAtoms=   13 NActive=   13 NUniq=   13 SFac= 1.00D+00 NAtFMM=   60 NAOKFM=F Big=F
 Integral buffers will be    131072 words long.
 Raffenetti 2 integral format.
 Two-electron integral symmetry is turned on.
 Leave Link  301 at Mon Nov 10 19:34:54 2025, MaxMem=    33554432 cpu:         0.0
 (Enter /opt/programs/gaussian/g09/d_pgi133/l302.exe)
 NPDir=0 NMtPBC=     1 NCelOv=     1 NCel=       1 NClECP=     1 NCelD=      1
         NCelK=      1 NCelE2=     1 NClLst=     1 CellRange=     0.0.
 One-electron integrals computed using PRISM.
 NBasis=   166 RedAO= T EigKep=  3.92D-05  NBF=   166
 NBsUse=   166 1.00D-06 EigRej= -1.00D+00 NBFU=   166
 Precomputing XC quadrature grid using
 IXCGrd= 4 IRadAn=           0 IRanWt=          -1 IRanGd=           0 AccXCQ= 0.00D+00.
 Generated NRdTot=       0 NPtTot=           0 NUsed=           0 NTot=          32
 NSgBfM=   171   171   171   171   171 MxSgAt=    13 MxSgA2=    13.
 Leave Link  302 at Mon Nov 10 19:34:54 2025, MaxMem=    33554432 cpu:         0.1
 (Enter /opt/programs/gaussian/g09/d_pgi133/l303.exe)
 DipDrv:  MaxL=1.
 Leave Link  303 at Mon Nov 10 19:34:54 2025, MaxMem=    33554432 cpu:         0.0
 (Enter /opt/programs/gaussian/g09/d_pgi133/l401.exe)
 ExpMin= 3.60D-02 ExpMax= 8.59D+03 ExpMxC= 1.30D+03 IAcc=3 IRadAn=         5 AccDes= 0.00D+00
 Harris functional with IExCor= 1009 and IRadAn=       5 diagonalized for initial guess.
 HarFok:  IExCor= 1009 AccDes= 0.00D+00 IRadAn=         5 IDoV= 1 UseB2=F ITyADJ=14
 ICtDFT=  3500011 ScaDFX=  1.000000  1.000000  1.000000  1.000000
 FoFCou: FMM=F IPFlag=           0 FMFlag=      100000 FMFlg1=           0
         NFxFlg=           0 DoJE=T BraDBF=F KetDBF=T FulRan=T
         wScrn=  0.000000 ICntrl=     500 IOpCl=  0 I1Cent=   200000004 NGrid=           0
         NMat0=    1 NMatS0=      1 NMatT0=    0 NMatD0=    1 NMtDS0=    0 NMtDT0=    0
 Petite list used in FoFCou.
 Harris En= -269.440754749781    
 JPrj=0 DoOrth=F DoCkMO=F.
 Leave Link  401 at Mon Nov 10 19:34:55 2025, MaxMem=    33554432 cpu:         1.5
 (Enter /opt/programs/gaussian/g09/d_pgi133/l502.exe)
 Closed shell SCF:
 Using DIIS extrapolation, IDIIS=  1040.
 Integral symmetry usage will be decided dynamically.
 IVT=      108587 IEndB=      108587 NGot=    33554432 MDV=    33491898
 LenX=    33491898 LenY=    33462216
 Requested convergence on RMS density matrix=1.00D-08 within 128 cycles.
 Requested convergence on MAX density matrix=1.00D-06.
 Requested convergence on             energy=1.00D-06.
 No special actions if energy rises.
 Fock matrices will be formed incrementally for  20 cycles.

 Cycle   1  Pass 1  IDiag  1:
 FoFJK:  IHMeth= 1 ICntrl=       0 DoSepK=F KAlg= 0 I1Cent=   0 FoldK=F
 IRaf= 980000000 NMat=   1 IRICut=       1 DoRegI=T DoRafI=F ISym2E= 0.
 FoFCou: FMM=F IPFlag=           0 FMFlag=      100000 FMFlg1=           0
         NFxFlg=           0 DoJE=F BraDBF=F KetDBF=F FulRan=T
         wScrn=  0.000000 ICntrl=       0 IOpCl=  0 I1Cent=           0 NGrid=           0
         NMat0=    1 NMatS0=      1 NMatT0=    0 NMatD0=    1 NMtDS0=    0 NMtDT0=    0
 Symmetry not used in FoFCou.
 E= -269.360147475225    
 DIIS: error= 2.65D-02 at cycle   1 NSaved=   1.
 NSaved= 1 IEnMin= 1 EnMin= -269.360147475225     IErMin= 1 ErrMin= 2.65D-02
 ErrMax= 2.65D-02  0.00D+00 EMaxC= 1.00D-01 BMatC= 2.34D-01 BMatP= 2.34D-01
 IDIUse=3 WtCom= 7.35D-01 WtEn= 2.65D-01
 Coeff-Com:  0.100D+01
 Coeff-En:   0.100D+01
 Coeff:      0.100D+01
 Gap=     0.305 Goal=   None    Shift=    0.000
 GapD=    0.305 DampG=1.000 DampE=0.500 DampFc=0.5000 IDamp=-1.
 Damping current iteration by 5.00D-01
 RMSDP=6.63D-03 MaxDP=1.17D-01              OVMax= 1.34D-01

 Cycle   2  Pass 1  IDiag  1:
 RMSU=  3.31D-03    CP:  9.87D-01
 E= -269.441081941863     Delta-E=       -0.080934466638 Rises=F Damp=T
 DIIS: error= 7.43D-03 at cycle   2 NSaved=   2.
 NSaved= 2 IEnMin= 2 EnMin= -269.441081941863     IErMin= 2 ErrMin= 7.43D-03
 ErrMax= 7.43D-03  0.00D+00 EMaxC= 1.00D-01 BMatC= 1.52D-02 BMatP= 2.34D-01
 IDIUse=3 WtCom= 9.26D-01 WtEn= 7.43D-02
 Coeff-Com: -0.386D-01 0.104D+01
 Coeff-En:   0.000D+00 0.100D+01
 Coeff:     -0.358D-01 0.104D+01
 Gap=     0.346 Goal=   None    Shift=    0.000
 RMSDP=2.20D-03 MaxDP=1.15D-01 DE=-8.09D-02 OVMax= 7.56D-02

 Cycle   3  Pass 1  IDiag  1:
 RMSU=  2.07D-03    CP:  9.57D-01  8.27D-01
 E= -269.525086344182     Delta-E=       -0.084004402319 Rises=F Damp=F
 DIIS: error= 4.62D-03 at cycle   3 NSaved=   3.
 NSaved= 3 IEnMin= 3 EnMin= -269.525086344182     IErMin= 3 ErrMin= 4.62D-03
 ErrMax= 4.62D-03  0.00D+00 EMaxC= 1.00D-01 BMatC= 4.02D-03 BMatP= 1.52D-02
 IDIUse=3 WtCom= 9.54D-01 WtEn= 4.62D-02
 Coeff-Com: -0.767D-01 0.318D+00 0.759D+00
 Coeff-En:   0.000D+00 0.000D+00 0.100D+01
 Coeff:     -0.731D-01 0.303D+00 0.770D+00
 Gap=     0.339 Goal=   None    Shift=    0.000
 RMSDP=3.84D-04 MaxDP=1.08D-02 DE=-8.40D-02 OVMax= 1.23D-02

 Cycle   4  Pass 1  IDiag  1:
 RMSU=  3.36D-04    CP:  9.58D-01  8.81D-01  9.83D-01
 E= -269.527162088812     Delta-E=       -0.002075744630 Rises=F Damp=F
 DIIS: error= 1.81D-03 at cycle   4 NSaved=   4.
 NSaved= 4 IEnMin= 4 EnMin= -269.527162088812     IErMin= 4 ErrMin= 1.81D-03
 ErrMax= 1.81D-03  0.00D+00 EMaxC= 1.00D-01 BMatC= 8.00D-04 BMatP= 4.02D-03
 IDIUse=3 WtCom= 9.82D-01 WtEn= 1.81D-02
 Coeff-Com: -0.315D-01 0.830D-01 0.376D+00 0.572D+00
 Coeff-En:   0.000D+00 0.000D+00 0.132D+00 0.868D+00
 Coeff:     -0.309D-01 0.815D-01 0.372D+00 0.577D+00
 Gap=     0.336 Goal=   None    Shift=    0.000
 RMSDP=1.55D-04 MaxDP=3.58D-03 DE=-2.08D-03 OVMax= 4.82D-03

 Cycle   5  Pass 1  IDiag  1:
 RMSU=  1.04D-04    CP:  9.56D-01  8.71D-01  9.88D-01  6.91D-01
 E= -269.527813668173     Delta-E=       -0.000651579360 Rises=F Damp=F
 DIIS: error= 1.58D-04 at cycle   5 NSaved=   5.
 NSaved= 5 IEnMin= 5 EnMin= -269.527813668173     IErMin= 5 ErrMin= 1.58D-04
 ErrMax= 1.58D-04  0.00D+00 EMaxC= 1.00D-01 BMatC= 8.24D-06 BMatP= 8.00D-04
 IDIUse=3 WtCom= 9.98D-01 WtEn= 1.58D-03
 Coeff-Com: -0.356D-02 0.497D-02 0.507D-01 0.139D+00 0.809D+00
 Coeff-En:   0.000D+00 0.000D+00 0.000D+00 0.000D+00 0.100D+01
 Coeff:     -0.356D-02 0.496D-02 0.506D-01 0.139D+00 0.809D+00
 Gap=     0.336 Goal=   None    Shift=    0.000
 RMSDP=3.69D-05 MaxDP=8.34D-04 DE=-6.52D-04 OVMax= 6.06D-04

 Cycle   6  Pass 1  IDiag  1:
 RMSU=  2.77D-05    CP:  9.56D-01  8.67D-01  9.94D-01  7.18D-01  8.77D-01
 E= -269.527820605116     Delta-E=       -0.000006936944 Rises=F Damp=F
 DIIS: error= 2.09D-05 at cycle   6 NSaved=   6.
 NSaved= 6 IEnMin= 6 EnMin= -269.527820605116     IErMin= 6 ErrMin= 2.09D-05
 ErrMax= 2.09D-05  0.00D+00 EMaxC= 1.00D-01 BMatC= 1.65D-07 BMatP= 8.24D-06
 IDIUse=1 WtCom= 1.00D+00 WtEn= 0.00D+00
 Coeff-Com:  0.668D-03-0.196D-02-0.570D-02-0.156D-02 0.750D-01 0.934D+00
 Coeff:      0.668D-03-0.196D-02-0.570D-02-0.156D-02 0.750D-01 0.934D+00
 Gap=     0.336 Goal=   None    Shift=    0.000
 RMSDP=1.11D-05 MaxDP=4.38D-04 DE=-6.94D-06 OVMax= 1.42D-04

 Cycle   7  Pass 1  IDiag  1:
 RMSU=  6.76D-06    CP:  9.56D-01  8.65D-01  9.94D-01  7.27D-01  9.21D-01
                    CP:  1.01D+00
 E= -269.527820791347     Delta-E=       -0.000000186231 Rises=F Damp=F
 DIIS: error= 1.05D-05 at cycle   7 NSaved=   7.
 NSaved= 7 IEnMin= 7 EnMin= -269.527820791347     IErMin= 7 ErrMin= 1.05D-05
 ErrMax= 1.05D-05  0.00D+00 EMaxC= 1.00D-01 BMatC= 3.86D-08 BMatP= 1.65D-07
 IDIUse=1 WtCom= 1.00D+00 WtEn= 0.00D+00
 Coeff-Com:  0.524D-03-0.111D-02-0.594D-02-0.108D-01-0.338D-01 0.332D+00
 Coeff-Com:  0.720D+00
 Coeff:      0.524D-03-0.111D-02-0.594D-02-0.108D-01-0.338D-01 0.332D+00
 Coeff:      0.720D+00
 Gap=     0.336 Goal=   None    Shift=    0.000
 RMSDP=2.47D-06 MaxDP=5.49D-05 DE=-1.86D-07 OVMax= 4.31D-05

 Cycle   8  Pass 1  IDiag  1:
 RMSU=  9.75D-07    CP:  9.56D-01  8.64D-01  9.94D-01  7.27D-01  9.20D-01
                    CP:  1.07D+00  8.90D-01
 E= -269.527820826772     Delta-E=       -0.000000035424 Rises=F Damp=F
 DIIS: error= 3.21D-06 at cycle   8 NSaved=   8.
 NSaved= 8 IEnMin= 8 EnMin= -269.527820826772     IErMin= 8 ErrMin= 3.21D-06
 ErrMax= 3.21D-06  0.00D+00 EMaxC= 1.00D-01 BMatC= 3.57D-09 BMatP= 3.86D-08
 IDIUse=1 WtCom= 1.00D+00 WtEn= 0.00D+00
 Coeff-Com:  0.155D-03-0.303D-03-0.195D-02-0.410D-02-0.186D-01 0.702D-01
 Coeff-Com:  0.285D+00 0.669D+00
 Coeff:      0.155D-03-0.303D-03-0.195D-02-0.410D-02-0.186D-01 0.702D-01
 Coeff:      0.285D+00 0.669D+00
 Gap=     0.336 Goal=   None    Shift=    0.000
 RMSDP=5.83D-07 MaxDP=2.18D-05 DE=-3.54D-08 OVMax= 1.38D-05

 Cycle   9  Pass 1  IDiag  1:
 RMSU=  3.48D-07    CP:  9.56D-01  8.64D-01  9.94D-01  7.27D-01  9.21D-01
                    CP:  1.07D+00  9.35D-01  9.03D-01
 E= -269.527820829552     Delta-E=       -0.000000002780 Rises=F Damp=F
 DIIS: error= 8.58D-07 at cycle   9 NSaved=   9.
 NSaved= 9 IEnMin= 9 EnMin= -269.527820829552     IErMin= 9 ErrMin= 8.58D-07
 ErrMax= 8.58D-07  0.00D+00 EMaxC= 1.00D-01 BMatC= 2.67D-10 BMatP= 3.57D-09
 IDIUse=1 WtCom= 1.00D+00 WtEn= 0.00D+00
 Coeff-Com:  0.356D-05-0.221D-05-0.154D-03-0.439D-03-0.339D-02-0.474D-02
 Coeff-Com:  0.353D-01 0.232D+00 0.742D+00
 Coeff:      0.356D-05-0.221D-05-0.154D-03-0.439D-03-0.339D-02-0.474D-02
 Coeff:      0.353D-01 0.232D+00 0.742D+00
 Gap=     0.336 Goal=   None    Shift=    0.000
 RMSDP=1.44D-07 MaxDP=3.20D-06 DE=-2.78D-09 OVMax= 4.43D-06

 Cycle  10  Pass 1  IDiag  1:
 RMSU=  9.92D-08    CP:  9.56D-01  8.64D-01  9.94D-01  7.27D-01  9.21D-01
                    CP:  1.08D+00  9.43D-01  9.55D-01  1.04D+00
 E= -269.527820829753     Delta-E=       -0.000000000201 Rises=F Damp=F
 DIIS: error= 3.50D-07 at cycle  10 NSaved=  10.
 NSaved=10 IEnMin=10 EnMin= -269.527820829753     IErMin=10 ErrMin= 3.50D-07
 ErrMax= 3.50D-07  0.00D+00 EMaxC= 1.00D-01 BMatC= 3.94D-11 BMatP= 2.67D-10
 IDIUse=1 WtCom= 1.00D+00 WtEn= 0.00D+00
 Coeff-Com: -0.155D-04 0.323D-04 0.148D-03 0.265D-03 0.656D-03-0.942D-02
 Coeff-Com: -0.188D-01 0.163D-01 0.315D+00 0.696D+00
 Coeff:     -0.155D-04 0.323D-04 0.148D-03 0.265D-03 0.656D-03-0.942D-02
 Coeff:     -0.188D-01 0.163D-01 0.315D+00 0.696D+00
 Gap=     0.336 Goal=   None    Shift=    0.000
 RMSDP=7.28D-08 MaxDP=2.76D-06 DE=-2.01D-10 OVMax= 1.60D-06

 Cycle  11  Pass 1  IDiag  1:
 RMSU=  3.05D-08    CP:  9.56D-01  8.64D-01  9.94D-01  7.27D-01  9.21D-01
                    CP:  1.07D+00  9.49D-01  9.72D-01  1.10D+00  9.21D-01
 E= -269.527820829786     Delta-E=       -0.000000000034 Rises=F Damp=F
 DIIS: error= 5.87D-08 at cycle  11 NSaved=  11.
 NSaved=11 IEnMin=11 EnMin= -269.527820829786     IErMin=11 ErrMin= 5.87D-08
 ErrMax= 5.87D-08  0.00D+00 EMaxC= 1.00D-01 BMatC= 6.92D-13 BMatP= 3.94D-11
 IDIUse=1 WtCom= 1.00D+00 WtEn= 0.00D+00
 Coeff-Com: -0.138D-05 0.307D-05 0.230D-04 0.406D-04 0.188D-03-0.654D-03
 Coeff-Com: -0.396D-02-0.114D-01-0.846D-02 0.787D-01 0.945D+00
 Coeff:     -0.138D-05 0.307D-05 0.230D-04 0.406D-04 0.188D-03-0.654D-03
 Coeff:     -0.396D-02-0.114D-01-0.846D-02 0.787D-01 0.945D+00
 Gap=     0.336 Goal=   None    Shift=    0.000
 RMSDP=1.64D-08 MaxDP=5.10D-07 DE=-3.39D-11 OVMax= 5.94D-07

 Cycle  12  Pass 1  IDiag  1:
 RMSU=  9.87D-09    CP:  9.56D-01  8.64D-01  9.94D-01  7.27D-01  9.21D-01
                    CP:  1.07D+00  9.50D-01  9.75D-01  1.12D+00  9.91D-01
                    CP:  1.12D+00
 E= -269.527820829792     Delta-E=       -0.000000000006 Rises=F Damp=F
 DIIS: error= 1.13D-08 at cycle  12 NSaved=  12.
 NSaved=12 IEnMin=12 EnMin= -269.527820829792     IErMin=12 ErrMin= 1.13D-08
 ErrMax= 1.13D-08  0.00D+00 EMaxC= 1.00D-01 BMatC= 5.20D-14 BMatP= 6.92D-13
 IDIUse=1 WtCom= 1.00D+00 WtEn= 0.00D+00
 Coeff-Com:  0.833D-06-0.161D-05-0.558D-05-0.113D-04-0.206D-04 0.517D-03
 Coeff-Com:  0.691D-03-0.271D-02-0.209D-01-0.347D-01 0.123D+00 0.934D+00
 Coeff:      0.833D-06-0.161D-05-0.558D-05-0.113D-04-0.206D-04 0.517D-03
 Coeff:      0.691D-03-0.271D-02-0.209D-01-0.347D-01 0.123D+00 0.934D+00
 Gap=     0.336 Goal=   None    Shift=    0.000
 RMSDP=4.86D-09 MaxDP=1.88D-07 DE=-5.68D-12 OVMax= 1.76D-07

 SCF Done:  E(RM062X) =  -269.527820830     A.U. after   12 cycles
            NFock= 12  Conv=0.49D-08     -V/T= 2.0039
 KE= 2.684917017814D+02 PE=-1.003143216293D+03 EE= 2.793567843336D+02
 Leave Link  502 at Mon Nov 10 19:35:20 2025, MaxMem=    33554432 cpu:        24.7
 (Enter /opt/programs/gaussian/g09/d_pgi133/l601.exe)
 Copying SCF densities to generalized density rwf, IOpCl= 0 IROHF=0.

 **********************************************************************

            Population analysis using the SCF density.

 **********************************************************************

 Orbital symmetries:
       Occupied  (A) (A) (A) (A) (A) (A) (A) (A) (A) (A) (A) (A)
                 (A) (A) (A) (A) (A) (A) (A) (A) (A)
       Virtual   (A) (A) (A) (A) (A) (A) (A) (A) (A) (A) (A) (A)
                 (A) (A) (A) (A) (A) (A) (A) (A) (A) (A) (A) (A)
                 (A) (A) (A) (A) (A) (A) (A) (A) (A) (A) (A) (A)
                 (A) (A) (A) (A) (A) (A) (A) (A) (A) (A) (A) (A)
                 (A) (A) (A) (A) (A) (A) (A) (A) (A) (A) (A) (A)
                 (A) (A) (A) (A) (A) (A) (A) (A) (A) (A) (A) (A)
                 (A) (A) (A) (A) (A) (A) (A) (A) (A) (A) (A) (A)
                 (A) (A) (A) (A) (A) (A) (A) (A) (A) (A) (A) (A)
                 (A) (A) (A) (A) (A) (A) (A) (A) (A) (A) (A) (A)
                 (A) (A) (A) (A) (A) (A) (A) (A) (A) (A) (A) (A)
                 (A) (A) (A) (A) (A) (A) (A) (A) (A) (A) (A) (A)
                 (A) (A) (A) (A) (A) (A) (A) (A) (A) (A) (A) (A)
                 (A)
 The electronic state is 1-A.
 Alpha  occ. eigenvalues --  -19.62954 -19.62241 -10.59415 -10.58489 -10.53711
 Alpha  occ. eigenvalues --   -1.15045  -1.14376  -0.87669  -0.76322  -0.68671
 Alpha  occ. eigenvalues --   -0.60652  -0.58815  -0.53450  -0.51735  -0.49360
 Alpha  occ. eigenvalues --   -0.46101  -0.44122  -0.40958  -0.39307  -0.36493
 Alpha  occ. eigenvalues --   -0.34243
 Alpha virt. eigenvalues --   -0.00647   0.00539   0.01493   0.01708   0.04326
 Alpha virt. eigenvalues --    0.04531   0.04821   0.05634   0.07468   0.09519
 Alpha virt. eigenvalues --    0.10294   0.11252   0.11885   0.12582   0.13264
 Alpha virt. eigenvalues --    0.13745   0.13968   0.15243   0.16350   0.16952
 Alpha virt. eigenvalues --    0.19470   0.20489   0.21432   0.21535   0.23432
 Alpha virt. eigenvalues --    0.24392   0.25143   0.26254   0.27213   0.28880
 Alpha virt. eigenvalues --    0.30005   0.31117   0.31302   0.31939   0.33653
 Alpha virt. eigenvalues --    0.34908   0.35618   0.38878   0.40714   0.41454
 Alpha virt. eigenvalues --    0.47367   0.48846   0.50194   0.54574   0.57546
 Alpha virt. eigenvalues --    0.59935   0.60382   0.63166   0.64019   0.68299
 Alpha virt. eigenvalues --    0.69260   0.70846   0.71388   0.73787   0.75256
 Alpha virt. eigenvalues --    0.76582   0.79140   0.92460   0.96732   0.98648
 Alpha virt. eigenvalues --    1.02489   1.06262   1.12987   1.14744   1.19832
 Alpha virt. eigenvalues --    1.21725   1.22978   1.29550   1.30501   1.36251
 Alpha virt. eigenvalues --    1.40537   1.40733   1.45670   1.47114   1.52524
 Alpha virt. eigenvalues --    1.55708   1.58060   1.60062   1.60874   1.61635
 Alpha virt. eigenvalues --    1.64394   1.65010   1.69577   1.72275   1.74484
 Alpha virt. eigenvalues --    1.77048   1.80667   1.82131   1.87855   1.90103
 Alpha virt. eigenvalues --    1.96618   2.02161   2.04278   2.07892   2.10895
 Alpha virt. eigenvalues --    2.14465   2.16440   2.22379   2.26578   2.33131
 Alpha virt. eigenvalues --    2.38390   2.46376   2.50558   2.51839   2.54291
 Alpha virt. eigenvalues --    2.57549   2.60479   2.61521   2.62893   2.65679
 Alpha virt. eigenvalues --    2.71031   2.75025   2.80802   2.86588   2.94201
 Alpha virt. eigenvalues --    2.97627   3.01784   3.13290   3.16246   3.18160
 Alpha virt. eigenvalues --    3.22543   3.26305   3.30074   3.37636   3.44344
 Alpha virt. eigenvalues --    3.74351   3.80829   3.87283   3.91607   3.93829
 Alpha virt. eigenvalues --    4.04780   4.08096   4.19563   4.35679   5.17229
 Alpha virt. eigenvalues --    5.19490   5.49184   5.50438   5.73076   5.75156
 Alpha virt. eigenvalues --   23.89499  23.92630  23.98029  50.02213  50.02919
          Condensed to atoms (all electrons):
               1          2          3          4          5          6
     1  C    5.602712   0.433510   0.345412  -0.039646  -0.075881  -0.034932
     2  H    0.433510   0.663385  -0.101321  -0.093637   0.009249  -0.010373
     3  H    0.345412  -0.101321   0.667782  -0.008194  -0.000606   0.013333
     4  C   -0.039646  -0.093637  -0.008194   5.722313   0.439097   0.442894
     5  H   -0.075881   0.009249  -0.000606   0.439097   0.558550  -0.070166
     6  H   -0.034932  -0.010373   0.013333   0.442894  -0.070166   0.562594
     7  C   -0.057562   0.007252  -0.007049  -0.071186   0.022426  -0.099072
     8  H    0.012351  -0.000021   0.003086   0.043927  -0.039395   0.026816
     9  H   -0.010657   0.002201  -0.009676  -0.058587   0.022095  -0.035394
    10  O    0.177351  -0.070685  -0.046099  -0.040558  -0.029375   0.021875
    11  H    0.022192   0.002216  -0.015645  -0.019528   0.002991  -0.003830
    12  O    0.035245  -0.002266   0.003809  -0.080340  -0.027636   0.027247
    13  H    0.000137  -0.000870   0.000359   0.000406   0.014390  -0.009462
               7          8          9         10         11         12
     1  C   -0.057562   0.012351  -0.010657   0.177351   0.022192   0.035245
     2  H    0.007252  -0.000021   0.002201  -0.070685   0.002216  -0.002266
     3  H   -0.007049   0.003086  -0.009676  -0.046099  -0.015645   0.003809
     4  C   -0.071186   0.043927  -0.058587  -0.040558  -0.019528  -0.080340
     5  H    0.022426  -0.039395   0.022095  -0.029375   0.002991  -0.027636
     6  H   -0.099072   0.026816  -0.035394   0.021875  -0.003830   0.027247
     7  C    5.671987   0.265766   0.463590  -0.037880   0.005812   0.202192
     8  H    0.265766   0.648820  -0.092771   0.006602  -0.002999  -0.019258
     9  H    0.463590  -0.092771   0.616871  -0.001558   0.002271  -0.098565
    10  O   -0.037880   0.006602  -0.001558   8.052871   0.237578  -0.002145
    11  H    0.005812  -0.002999   0.002271   0.237578   0.506901  -0.000030
    12  O    0.202192  -0.019258  -0.098565  -0.002145  -0.000030   7.970728
    13  H   -0.029028  -0.022501   0.022244  -0.000188  -0.000136   0.256974
              13
     1  C    0.000137
     2  H   -0.000870
     3  H    0.000359
     4  C    0.000406
     5  H    0.014390
     6  H   -0.009462
     7  C   -0.029028
     8  H   -0.022501
     9  H    0.022244
    10  O   -0.000188
    11  H   -0.000136
    12  O    0.256974
    13  H    0.518113
 Mulliken charges:
               1
     1  C   -0.410232
     2  H    0.161360
     3  H    0.154811
     4  C   -0.236963
     5  H    0.174263
     6  H    0.168470
     7  C   -0.337248
     8  H    0.169578
     9  H    0.177937
    10  O   -0.267790
    11  H    0.262207
    12  O   -0.265955
    13  H    0.249562
 Sum of Mulliken charges =   0.00000
 Mulliken charges with hydrogens summed into heavy atoms:
               1
     1  C   -0.094062
     4  C    0.105770
     7  C    0.010268
    10  O   -0.005583
    12  O   -0.016393
 Electronic spatial extent (au):  <R**2>=            590.6766
 Charge=              0.0000 electrons
 Dipole moment (field-independent basis, Debye):
    X=              2.0798    Y=              0.3847    Z=              0.5426  Tot=              2.1835
 Quadrupole moment (field-independent basis, Debye-Ang):
   XX=            -34.1021   YY=            -31.5060   ZZ=            -30.8386
   XY=              4.4316   XZ=              4.5649   YZ=              0.8919
 Traceless Quadrupole moment (field-independent basis, Debye-Ang):
   XX=             -1.9532   YY=              0.6429   ZZ=              1.3103
   XY=              4.4316   XZ=              4.5649   YZ=              0.8919
 Octapole moment (field-independent basis, Debye-Ang**2):
  XXX=             41.6602  YYY=             -2.6205  ZZZ=             -0.3627  XYY=             -4.7180
  XXY=             -6.1955  XXZ=              3.4403  XZZ=             -2.3323  YZZ=             -1.7365
  YYZ=             -1.3244  XYZ=             -5.6740
 Hexadecapole moment (field-independent basis, Debye-Ang**3):
 XXXX=           -529.6940 YYYY=            -89.9552 ZZZZ=            -82.7976 XXXY=              5.5575
 XXXZ=             41.1762 YYYX=              3.4115 YYYZ=              0.3046 ZZZX=              5.2977
 ZZZY=              3.0876 XXYY=           -101.3457 XXZZ=           -100.5128 YYZZ=            -26.9780
 XXYZ=              3.7998 YYXZ=              3.5344 ZZXY=              1.6042
 N-N= 1.857669093486D+02 E-N=-1.003143216785D+03  KE= 2.684917017814D+02
 No NMR shielding tensors so no spin-rotation constants.
 Leave Link  601 at Mon Nov 10 19:35:20 2025, MaxMem=    33554432 cpu:         0.0
 (Enter /opt/programs/gaussian/g09/d_pgi133/l9999.exe)
 1\1\GINC-EXADE5\SP\RM062X\6-311++G(d,p)\C3H8O2\APINTO\10-Nov-2025\0\\#
 p M062X/6-311++G(d,p)\\SP\\0,1\C,0,1.38966,0.436055,0.274266\H,0,1.903
 37,1.409219,0.305522\H,0,1.340476,0.066249,1.311761\C,0,-0.0227,0.6090
 67,-0.29632\H,0,0.017315,0.348324,-1.360834\H,0,-0.332248,1.658454,-0.
 234001\C,0,-1.073606,-0.236036,0.426555\H,0,-0.785118,-1.299279,0.3946
 84\H,0,-1.118465,0.053608,1.482272\O,0,2.096814,-0.474136,-0.566583\H,
 0,2.957323,-0.647277,-0.163756\O,0,-2.38737,-0.035037,-0.078319\H,0,-2
 .397826,-0.347918,-0.992513\\Version=ES64L-G09RevD.01\State=1-A\HF=-26
 9.5278208\RMSD=4.855e-09\Dipole=0.8313966,0.0253498,0.2147962\Quadrupo
 le=-0.9353597,0.0256448,0.9097149,1.2091751,4.7053798,0.0551299\PG=C01
  [X(C3H8O2)]\\@


 Just remember, when you're over the hill, you begin to pick up speed.
 -- Charles Schulz
 Job cpu time:       0 days  0 hours  0 minutes 26.3 seconds.
 File lengths (MBytes):  RWF=     16 Int=      0 D2E=      0 Chk=      2 Scr=      1
 Normal termination of Gaussian 09 at Mon Nov 10 19:35:20 2025.
