 Entering Gaussian System, Link 0=g09
 Input=xah.com
 Output=xah.log
 Initial command:
 /opt/programs/gaussian/g09/d_pgi133/l1.exe "/scratch/users/apinto/lixo/Gau-1263357.inp" -scrdir="/scratch/users/apinto/lixo/"
 Entering Link 1 = /opt/programs/gaussian/g09/d_pgi133/l1.exe PID=   1263359.
  
 Copyright (c) 1988,1990,1992,1993,1995,1998,2003,2009,2013,
            Gaussian, Inc.  All Rights Reserved.
  
 This is part of the Gaussian(R) 09 program.  It is based on
 the Gaussian(R) 03 system (copyright 2003, Gaussian, Inc.),
 the Gaussian(R) 98 system (copyright 1998, Gaussian, Inc.),
 the Gaussian(R) 94 system (copyright 1995, Gaussian, Inc.),
 the Gaussian 92(TM) system (copyright 1992, Gaussian, Inc.),
 the Gaussian 90(TM) system (copyright 1990, Gaussian, Inc.),
 the Gaussian 88(TM) system (copyright 1988, Gaussian, Inc.),
 the Gaussian 86(TM) system (copyright 1986, Carnegie Mellon
 University), and the Gaussian 82(TM) system (copyright 1983,
 Carnegie Mellon University). Gaussian is a federally registered
 trademark of Gaussian, Inc.
  
 This software contains proprietary and confidential information,
 including trade secrets, belonging to Gaussian, Inc.
  
 This software is provided under written license and may be
 used, copied, transmitted, or stored only in accord with that
 written license.
  
 The following legend is applicable only to US Government
 contracts under FAR:
  
                    RESTRICTED RIGHTS LEGEND
  
 Use, reproduction and disclosure by the US Government is
 subject to restrictions as set forth in subparagraphs (a)
 and (c) of the Commercial Computer Software - Restricted
 Rights clause in FAR 52.227-19.
  
 Gaussian, Inc.
 340 Quinnipiac St., Bldg. 40, Wallingford CT 06492
  
  
 ---------------------------------------------------------------
 Warning -- This program may not be used in any manner that
 competes with the business of Gaussian, Inc. or will provide
 assistance to any competitor of Gaussian, Inc.  The licensee
 of this program is prohibited from giving any competitor of
 Gaussian, Inc. access to this program.  By using this program,
 the user acknowledges that Gaussian, Inc. is engaged in the
 business of creating and licensing software in the field of
 computational chemistry and represents and warrants to the
 licensee that it is not a competitor of Gaussian, Inc. and that
 it will not use this program in any manner prohibited above.
 ---------------------------------------------------------------
  

 Cite this work as:
 Gaussian 09, Revision D.01,
 M. J. Frisch, G. W. Trucks, H. B. Schlegel, G. E. Scuseria, 
 M. A. Robb, J. R. Cheeseman, G. Scalmani, V. Barone, B. Mennucci, 
 G. A. Petersson, H. Nakatsuji, M. Caricato, X. Li, H. P. Hratchian, 
 A. F. Izmaylov, J. Bloino, G. Zheng, J. L. Sonnenberg, M. Hada, 
 M. Ehara, K. Toyota, R. Fukuda, J. Hasegawa, M. Ishida, T. Nakajima, 
 Y. Honda, O. Kitao, H. Nakai, T. Vreven, J. A. Montgomery, Jr., 
 J. E. Peralta, F. Ogliaro, M. Bearpark, J. J. Heyd, E. Brothers, 
 K. N. Kudin, V. N. Staroverov, T. Keith, R. Kobayashi, J. Normand, 
 K. Raghavachari, A. Rendell, J. C. Burant, S. S. Iyengar, J. Tomasi, 
 M. Cossi, N. Rega, J. M. Millam, M. Klene, J. E. Knox, J. B. Cross, 
 V. Bakken, C. Adamo, J. Jaramillo, R. Gomperts, R. E. Stratmann, 
 O. Yazyev, A. J. Austin, R. Cammi, C. Pomelli, J. W. Ochterski, 
 R. L. Martin, K. Morokuma, V. G. Zakrzewski, G. A. Voth, 
 P. Salvador, J. J. Dannenberg, S. Dapprich, A. D. Daniels, 
 O. Farkas, J. B. Foresman, J. V. Ortiz, J. Cioslowski, 
 and D. J. Fox, Gaussian, Inc., Wallingford CT, 2013.
 
 ******************************************
 Gaussian 09:  ES64L-G09RevD.01 24-Apr-2013
                10-Nov-2025 
 ******************************************
 ----------------------
 #p M062X/6-311++G(d,p)
 ----------------------
 1/38=1/1;
 2/12=2,17=6,18=5,40=1/2;
 3/5=4,6=6,7=1111,11=2,16=1,25=1,30=1,74=-55/1,2,3;
 4//1;
 5/5=2,38=5/2;
 6/7=2,8=2,9=2,10=2,28=1/1;
 99/5=1,9=1/99;
 Leave Link    1 at Mon Nov 10 19:35:20 2025, MaxMem=           0 cpu:         0.0
 (Enter /opt/programs/gaussian/g09/d_pgi133/l101.exe)
 --
 SP
 --
 Symbolic Z-matrix:
 Charge =  0 Multiplicity = 1
 C                     1.3885    0.41447   0.28051 
 H                     1.87703   1.39482   0.38875 
 H                     1.33007  -0.02647   1.28956 
 C                    -0.01999   0.58992  -0.30534 
 H                     0.02263   0.28793  -1.35872 
 H                    -0.31722   1.64417  -0.28582 
 C                    -1.08647  -0.21737   0.43825 
 H                    -0.81148  -1.28491   0.44074 
 H                    -1.13311   0.10463   1.4845 
 O                     2.13495  -0.42155  -0.60201 
 H                     2.99896  -0.58286  -0.20155 
 O                    -2.3946   -0.01543  -0.07907 
 H                    -2.40164  -0.34605  -0.98706 
 
 NAtoms=     13 NQM=       13 NQMF=       0 NMMI=      0 NMMIF=      0
                NMic=       0 NMicF=      0.
                    Isotopes and Nuclear Properties:
 (Nuclear quadrupole moments (NQMom) in fm**2, nuclear magnetic moments (NMagM)
  in nuclear magnetons)

  Atom         1           2           3           4           5           6           7           8           9          10
 IAtWgt=          12           1           1          12           1           1          12           1           1          16
 AtmWgt=  12.0000000   1.0078250   1.0078250  12.0000000   1.0078250   1.0078250  12.0000000   1.0078250   1.0078250  15.9949146
 NucSpn=           0           1           1           0           1           1           0           1           1           0
 AtZEff=   0.0000000   0.0000000   0.0000000   0.0000000   0.0000000   0.0000000   0.0000000   0.0000000   0.0000000   0.0000000
 NQMom=    0.0000000   0.0000000   0.0000000   0.0000000   0.0000000   0.0000000   0.0000000   0.0000000   0.0000000   0.0000000
 NMagM=    0.0000000   2.7928460   2.7928460   0.0000000   2.7928460   2.7928460   0.0000000   2.7928460   2.7928460   0.0000000
 AtZNuc=   6.0000000   1.0000000   1.0000000   6.0000000   1.0000000   1.0000000   6.0000000   1.0000000   1.0000000   8.0000000

  Atom        11          12          13
 IAtWgt=           1          16           1
 AtmWgt=   1.0078250  15.9949146   1.0078250
 NucSpn=           1           0           1
 AtZEff=   0.0000000   0.0000000   0.0000000
 NQMom=    0.0000000   0.0000000   0.0000000
 NMagM=    2.7928460   0.0000000   2.7928460
 AtZNuc=   1.0000000   8.0000000   1.0000000
 Leave Link  101 at Mon Nov 10 19:35:20 2025, MaxMem=    33554432 cpu:         0.0
 (Enter /opt/programs/gaussian/g09/d_pgi133/l202.exe)
                          Input orientation:                          
 ---------------------------------------------------------------------
 Center     Atomic      Atomic             Coordinates (Angstroms)
 Number     Number       Type             X           Y           Z
 ---------------------------------------------------------------------
      1          6           0        1.388496    0.414470    0.280513
      2          1           0        1.877029    1.394819    0.388747
      3          1           0        1.330069   -0.026471    1.289560
      4          6           0       -0.019992    0.589915   -0.305335
      5          1           0        0.022634    0.287934   -1.358720
      6          1           0       -0.317217    1.644171   -0.285824
      7          6           0       -1.086474   -0.217371    0.438249
      8          1           0       -0.811483   -1.284905    0.440738
      9          1           0       -1.133105    0.104626    1.484500
     10          8           0        2.134954   -0.421552   -0.602012
     11          1           0        2.998956   -0.582864   -0.201553
     12          8           0       -2.394604   -0.015433   -0.079067
     13          1           0       -2.401637   -0.346048   -0.987061
 ---------------------------------------------------------------------
                    Distance matrix (angstroms):
                    1          2          3          4          5
     1  C    0.000000
     2  H    1.100665   0.000000
     3  H    1.102732   1.769377   0.000000
     4  C    1.535525   2.174468   2.178597   0.000000
     5  H    2.137446   2.778060   2.970122   1.096645   0.000000
     6  H    2.177696   2.309099   2.826027   1.095527   1.762380
     7  C    2.559215   3.374012   2.569213   1.530363   2.171302
     8  H    2.784503   3.796277   2.624957   2.167495   2.531328
     9  H    2.811416   3.453430   2.474351   2.162877   3.074611
    10  O    1.426528   2.085026   2.093316   2.398932   2.353269
    11  H    1.954647   2.349128   2.306117   3.240406   3.309957
    12  O    3.824390   4.522666   3.968180   2.460981   2.751833
    13  H    4.068199   4.819798   4.383008   2.648209   2.533210
                    6          7          8          9         10
     6  H    0.000000
     7  C    2.140415   0.000000
     8  H    3.058051   1.102386   0.000000
     9  H    2.483932   1.095672   1.767392   0.000000
    10  O    3.221852   3.391376   3.242560   3.912877   0.000000
    11  H    3.995471   4.151346   3.927448   4.515456   0.965861
    12  O    2.666940   1.421126   2.094762   2.012594   4.577696
    13  H    2.966060   1.943636   2.334235   2.814408   4.553528
                   11         12         13
    11  H    0.000000
    12  O    5.424709   0.000000
    13  H    5.462555   0.966338   0.000000
 Stoichiometry    C3H8O2
 Framework group  C1[X(C3H8O2)]
 Deg. of freedom    33
 Full point group                 C1      NOp   1
 Largest Abelian subgroup         C1      NOp   1
 Largest concise Abelian subgroup C1      NOp   1
                         Standard orientation:                         
 ---------------------------------------------------------------------
 Center     Atomic      Atomic             Coordinates (Angstroms)
 Number     Number       Type             X           Y           Z
 ---------------------------------------------------------------------
      1          6           0       -1.336484    0.550027   -0.011115
      2          1           0       -1.815960    1.307812    0.627108
      3          1           0       -1.215820    1.003025   -1.009239
      4          6           0        0.032946    0.164904    0.566966
      5          1           0       -0.075738   -0.817548    1.041944
      6          1           0        0.332263    0.868825    1.351240
      7          6           0        1.142632    0.128356   -0.486254
      8          1           0        0.866861   -0.569126   -1.294168
      9          1           0        1.254897    1.118673   -0.941410
     10          8           0       -2.137704   -0.628439   -0.076272
     11          1           0       -2.975258   -0.397485   -0.498235
     12          8           0        2.416213   -0.183393    0.061836
     13          1           0        2.366122   -1.079241    0.420665
 ---------------------------------------------------------------------
 Rotational constants (GHZ):     15.6832778      2.1089677      2.0751642
 Leave Link  202 at Mon Nov 10 19:35:20 2025, MaxMem=    33554432 cpu:         0.0
 (Enter /opt/programs/gaussian/g09/d_pgi133/l301.exe)
 Standard basis: 6-311++G(d,p) (5D, 7F)
 Ernie: Thresh=  0.10000D-02 Tol=  0.10000D-05 Strict=F.
 There are   171 symmetry adapted cartesian basis functions of A   symmetry.
 There are   166 symmetry adapted basis functions of A   symmetry.
   166 basis functions,   252 primitive gaussians,   171 cartesian basis functions
    21 alpha electrons       21 beta electrons
       nuclear repulsion energy       185.4883937168 Hartrees.
 IExCor= 4336 DFT=T Ex+Corr=M062X ExCW=0 ScaHFX=  0.540000
 ScaDFX=  1.000000  1.000000  1.000000  1.000000 ScalE2=  1.000000  1.000000
 IRadAn=      0 IRanWt=     -1 IRanGd=            0 ICorTp=0 IEmpDi=  4
 NAtoms=   13 NActive=   13 NUniq=   13 SFac= 1.00D+00 NAtFMM=   60 NAOKFM=F Big=F
 Integral buffers will be    131072 words long.
 Raffenetti 2 integral format.
 Two-electron integral symmetry is turned on.
 Leave Link  301 at Mon Nov 10 19:35:20 2025, MaxMem=    33554432 cpu:         0.0
 (Enter /opt/programs/gaussian/g09/d_pgi133/l302.exe)
 NPDir=0 NMtPBC=     1 NCelOv=     1 NCel=       1 NClECP=     1 NCelD=      1
         NCelK=      1 NCelE2=     1 NClLst=     1 CellRange=     0.0.
 One-electron integrals computed using PRISM.
 NBasis=   166 RedAO= T EigKep=  4.01D-05  NBF=   166
 NBsUse=   166 1.00D-06 EigRej= -1.00D+00 NBFU=   166
 Precomputing XC quadrature grid using
 IXCGrd= 4 IRadAn=           0 IRanWt=          -1 IRanGd=           0 AccXCQ= 0.00D+00.
 Generated NRdTot=       0 NPtTot=           0 NUsed=           0 NTot=          32
 NSgBfM=   171   171   171   171   171 MxSgAt=    13 MxSgA2=    13.
 Leave Link  302 at Mon Nov 10 19:35:20 2025, MaxMem=    33554432 cpu:         0.1
 (Enter /opt/programs/gaussian/g09/d_pgi133/l303.exe)
 DipDrv:  MaxL=1.
 Leave Link  303 at Mon Nov 10 19:35:20 2025, MaxMem=    33554432 cpu:         0.0
 (Enter /opt/programs/gaussian/g09/d_pgi133/l401.exe)
 ExpMin= 3.60D-02 ExpMax= 8.59D+03 ExpMxC= 1.30D+03 IAcc=3 IRadAn=         5 AccDes= 0.00D+00
 Harris functional with IExCor= 1009 and IRadAn=       5 diagonalized for initial guess.
 HarFok:  IExCor= 1009 AccDes= 0.00D+00 IRadAn=         5 IDoV= 1 UseB2=F ITyADJ=14
 ICtDFT=  3500011 ScaDFX=  1.000000  1.000000  1.000000  1.000000
 FoFCou: FMM=F IPFlag=           0 FMFlag=      100000 FMFlg1=           0
         NFxFlg=           0 DoJE=T BraDBF=F KetDBF=T FulRan=T
         wScrn=  0.000000 ICntrl=     500 IOpCl=  0 I1Cent=   200000004 NGrid=           0
         NMat0=    1 NMatS0=      1 NMatT0=    0 NMatD0=    1 NMtDS0=    0 NMtDT0=    0
 Petite list used in FoFCou.
 Harris En= -269.440057090621    
 JPrj=0 DoOrth=F DoCkMO=F.
 Leave Link  401 at Mon Nov 10 19:35:22 2025, MaxMem=    33554432 cpu:         1.5
 (Enter /opt/programs/gaussian/g09/d_pgi133/l502.exe)
 Closed shell SCF:
 Using DIIS extrapolation, IDIIS=  1040.
 Integral symmetry usage will be decided dynamically.
 IVT=      108587 IEndB=      108587 NGot=    33554432 MDV=    33491898
 LenX=    33491898 LenY=    33462216
 Requested convergence on RMS density matrix=1.00D-08 within 128 cycles.
 Requested convergence on MAX density matrix=1.00D-06.
 Requested convergence on             energy=1.00D-06.
 No special actions if energy rises.
 Fock matrices will be formed incrementally for  20 cycles.

 Cycle   1  Pass 1  IDiag  1:
 FoFJK:  IHMeth= 1 ICntrl=       0 DoSepK=F KAlg= 0 I1Cent=   0 FoldK=F
 IRaf= 980000000 NMat=   1 IRICut=       1 DoRegI=T DoRafI=F ISym2E= 0.
 FoFCou: FMM=F IPFlag=           0 FMFlag=      100000 FMFlg1=           0
         NFxFlg=           0 DoJE=F BraDBF=F KetDBF=F FulRan=T
         wScrn=  0.000000 ICntrl=       0 IOpCl=  0 I1Cent=           0 NGrid=           0
         NMat0=    1 NMatS0=      1 NMatT0=    0 NMatD0=    1 NMtDS0=    0 NMtDT0=    0
 Symmetry not used in FoFCou.
 E= -269.359832575444    
 DIIS: error= 2.43D-02 at cycle   1 NSaved=   1.
 NSaved= 1 IEnMin= 1 EnMin= -269.359832575444     IErMin= 1 ErrMin= 2.43D-02
 ErrMax= 2.43D-02  0.00D+00 EMaxC= 1.00D-01 BMatC= 2.34D-01 BMatP= 2.34D-01
 IDIUse=3 WtCom= 7.57D-01 WtEn= 2.43D-01
 Coeff-Com:  0.100D+01
 Coeff-En:   0.100D+01
 Coeff:      0.100D+01
 Gap=     0.306 Goal=   None    Shift=    0.000
 GapD=    0.306 DampG=1.000 DampE=0.500 DampFc=0.5000 IDamp=-1.
 Damping current iteration by 5.00D-01
 RMSDP=6.51D-03 MaxDP=1.33D-01              OVMax= 1.34D-01

 Cycle   2  Pass 1  IDiag  1:
 RMSU=  3.24D-03    CP:  9.83D-01
 E= -269.440632546785     Delta-E=       -0.080799971340 Rises=F Damp=T
 DIIS: error= 8.20D-03 at cycle   2 NSaved=   2.
 NSaved= 2 IEnMin= 2 EnMin= -269.440632546785     IErMin= 2 ErrMin= 8.20D-03
 ErrMax= 8.20D-03  0.00D+00 EMaxC= 1.00D-01 BMatC= 1.51D-02 BMatP= 2.34D-01
 IDIUse=3 WtCom= 9.18D-01 WtEn= 8.20D-02
 Coeff-Com: -0.392D-01 0.104D+01
 Coeff-En:   0.000D+00 0.100D+01
 Coeff:     -0.360D-01 0.104D+01
 Gap=     0.347 Goal=   None    Shift=    0.000
 RMSDP=2.04D-03 MaxDP=8.99D-02 DE=-8.08D-02 OVMax= 7.52D-02

 Cycle   3  Pass 1  IDiag  1:
 RMSU=  1.96D-03    CP:  9.57D-01  8.75D-01
 E= -269.524398116433     Delta-E=       -0.083765569649 Rises=F Damp=F
 DIIS: error= 4.26D-03 at cycle   3 NSaved=   3.
 NSaved= 3 IEnMin= 3 EnMin= -269.524398116433     IErMin= 3 ErrMin= 4.26D-03
 ErrMax= 4.26D-03  0.00D+00 EMaxC= 1.00D-01 BMatC= 4.00D-03 BMatP= 1.51D-02
 IDIUse=3 WtCom= 9.57D-01 WtEn= 4.26D-02
 Coeff-Com: -0.766D-01 0.317D+00 0.759D+00
 Coeff-En:   0.000D+00 0.000D+00 0.100D+01
 Coeff:     -0.733D-01 0.304D+00 0.769D+00
 Gap=     0.340 Goal=   None    Shift=    0.000
 RMSDP=3.71D-04 MaxDP=9.24D-03 DE=-8.38D-02 OVMax= 1.22D-02

 Cycle   4  Pass 1  IDiag  1:
 RMSU=  3.30D-04    CP:  9.58D-01  9.26D-01  9.88D-01
 E= -269.526460131667     Delta-E=       -0.002062015233 Rises=F Damp=F
 DIIS: error= 1.80D-03 at cycle   4 NSaved=   4.
 NSaved= 4 IEnMin= 4 EnMin= -269.526460131667     IErMin= 4 ErrMin= 1.80D-03
 ErrMax= 1.80D-03  0.00D+00 EMaxC= 1.00D-01 BMatC= 7.97D-04 BMatP= 4.00D-03
 IDIUse=3 WtCom= 9.82D-01 WtEn= 1.80D-02
 Coeff-Com: -0.316D-01 0.830D-01 0.376D+00 0.572D+00
 Coeff-En:   0.000D+00 0.000D+00 0.134D+00 0.866D+00
 Coeff:     -0.310D-01 0.815D-01 0.372D+00 0.578D+00
 Gap=     0.337 Goal=   None    Shift=    0.000
 RMSDP=1.55D-04 MaxDP=3.60D-03 DE=-2.06D-03 OVMax= 4.80D-03

 Cycle   5  Pass 1  IDiag  1:
 RMSU=  1.03D-04    CP:  9.56D-01  9.16D-01  9.93D-01  6.77D-01
 E= -269.527112652671     Delta-E=       -0.000652521004 Rises=F Damp=F
 DIIS: error= 1.64D-04 at cycle   5 NSaved=   5.
 NSaved= 5 IEnMin= 5 EnMin= -269.527112652671     IErMin= 5 ErrMin= 1.64D-04
 ErrMax= 1.64D-04  0.00D+00 EMaxC= 1.00D-01 BMatC= 7.98D-06 BMatP= 7.97D-04
 IDIUse=3 WtCom= 9.98D-01 WtEn= 1.64D-03
 Coeff-Com: -0.354D-02 0.494D-02 0.499D-01 0.137D+00 0.812D+00
 Coeff-En:   0.000D+00 0.000D+00 0.000D+00 0.000D+00 0.100D+01
 Coeff:     -0.353D-02 0.493D-02 0.498D-01 0.137D+00 0.812D+00
 Gap=     0.337 Goal=   None    Shift=    0.000
 RMSDP=3.53D-05 MaxDP=1.01D-03 DE=-6.53D-04 OVMax= 6.01D-04

 Cycle   6  Pass 1  IDiag  1:
 RMSU=  2.68D-05    CP:  9.56D-01  9.13D-01  9.98D-01  7.08D-01  8.76D-01
 E= -269.527119382458     Delta-E=       -0.000006729787 Rises=F Damp=F
 DIIS: error= 2.18D-05 at cycle   6 NSaved=   6.
 NSaved= 6 IEnMin= 6 EnMin= -269.527119382458     IErMin= 6 ErrMin= 2.18D-05
 ErrMax= 2.18D-05  0.00D+00 EMaxC= 1.00D-01 BMatC= 1.66D-07 BMatP= 7.98D-06
 IDIUse=1 WtCom= 1.00D+00 WtEn= 0.00D+00
 Coeff-Com:  0.644D-03-0.192D-02-0.541D-02-0.956D-03 0.789D-01 0.929D+00
 Coeff:      0.644D-03-0.192D-02-0.541D-02-0.956D-03 0.789D-01 0.929D+00
 Gap=     0.337 Goal=   None    Shift=    0.000
 RMSDP=1.11D-05 MaxDP=4.82D-04 DE=-6.73D-06 OVMax= 1.44D-04

 Cycle   7  Pass 1  IDiag  1:
 RMSU=  6.66D-06    CP:  9.56D-01  9.10D-01  9.98D-01  7.16D-01  9.20D-01
                    CP:  1.02D+00
 E= -269.527119566944     Delta-E=       -0.000000184486 Rises=F Damp=F
 DIIS: error= 1.07D-05 at cycle   7 NSaved=   7.
 NSaved= 7 IEnMin= 7 EnMin= -269.527119566944     IErMin= 7 ErrMin= 1.07D-05
 ErrMax= 1.07D-05  0.00D+00 EMaxC= 1.00D-01 BMatC= 4.06D-08 BMatP= 1.66D-07
 IDIUse=1 WtCom= 1.00D+00 WtEn= 0.00D+00
 Coeff-Com:  0.529D-03-0.112D-02-0.595D-02-0.109D-01-0.343D-01 0.337D+00
 Coeff-Com:  0.715D+00
 Coeff:      0.529D-03-0.112D-02-0.595D-02-0.109D-01-0.343D-01 0.337D+00
 Coeff:      0.715D+00
 Gap=     0.337 Goal=   None    Shift=    0.000
 RMSDP=2.33D-06 MaxDP=5.65D-05 DE=-1.84D-07 OVMax= 4.35D-05

 Cycle   8  Pass 1  IDiag  1:
 RMSU=  9.59D-07    CP:  9.56D-01  9.10D-01  9.98D-01  7.16D-01  9.19D-01
                    CP:  1.08D+00  8.90D-01
 E= -269.527119604281     Delta-E=       -0.000000037337 Rises=F Damp=F
 DIIS: error= 2.96D-06 at cycle   8 NSaved=   8.
 NSaved= 8 IEnMin= 8 EnMin= -269.527119604281     IErMin= 8 ErrMin= 2.96D-06
 ErrMax= 2.96D-06  0.00D+00 EMaxC= 1.00D-01 BMatC= 3.44D-09 BMatP= 4.06D-08
 IDIUse=1 WtCom= 1.00D+00 WtEn= 0.00D+00
 Coeff-Com:  0.156D-03-0.305D-03-0.195D-02-0.409D-02-0.188D-01 0.717D-01
 Coeff-Com:  0.279D+00 0.674D+00
 Coeff:      0.156D-03-0.305D-03-0.195D-02-0.409D-02-0.188D-01 0.717D-01
 Coeff:      0.279D+00 0.674D+00
 Gap=     0.337 Goal=   None    Shift=    0.000
 RMSDP=5.80D-07 MaxDP=2.25D-05 DE=-3.73D-08 OVMax= 1.35D-05

 Cycle   9  Pass 1  IDiag  1:
 RMSU=  3.46D-07    CP:  9.56D-01  9.10D-01  9.98D-01  7.16D-01  9.20D-01
                    CP:  1.08D+00  9.33D-01  9.11D-01
 E= -269.527119606967     Delta-E=       -0.000000002686 Rises=F Damp=F
 DIIS: error= 9.20D-07 at cycle   9 NSaved=   9.
 NSaved= 9 IEnMin= 9 EnMin= -269.527119606967     IErMin= 9 ErrMin= 9.20D-07
 ErrMax= 9.20D-07  0.00D+00 EMaxC= 1.00D-01 BMatC= 2.74D-10 BMatP= 3.44D-09
 IDIUse=1 WtCom= 1.00D+00 WtEn= 0.00D+00
 Coeff-Com:  0.390D-05-0.296D-05-0.157D-03-0.447D-03-0.347D-02-0.454D-02
 Coeff-Com:  0.343D-01 0.237D+00 0.738D+00
 Coeff:      0.390D-05-0.296D-05-0.157D-03-0.447D-03-0.347D-02-0.454D-02
 Coeff:      0.343D-01 0.237D+00 0.738D+00
 Gap=     0.337 Goal=   None    Shift=    0.000
 RMSDP=1.40D-07 MaxDP=3.22D-06 DE=-2.69D-09 OVMax= 4.43D-06

 Cycle  10  Pass 1  IDiag  1:
 RMSU=  9.76D-08    CP:  9.56D-01  9.10D-01  9.98D-01  7.16D-01  9.20D-01
                    CP:  1.08D+00  9.40D-01  9.64D-01  1.04D+00
 E= -269.527119607177     Delta-E=       -0.000000000210 Rises=F Damp=F
 DIIS: error= 3.43D-07 at cycle  10 NSaved=  10.
 NSaved=10 IEnMin=10 EnMin= -269.527119607177     IErMin=10 ErrMin= 3.43D-07
 ErrMax= 3.43D-07  0.00D+00 EMaxC= 1.00D-01 BMatC= 3.91D-11 BMatP= 2.74D-10
 IDIUse=1 WtCom= 1.00D+00 WtEn= 0.00D+00
 Coeff-Com: -0.157D-04 0.327D-04 0.150D-03 0.268D-03 0.678D-03-0.963D-02
 Coeff-Com: -0.190D-01 0.164D-01 0.311D+00 0.700D+00
 Coeff:     -0.157D-04 0.327D-04 0.150D-03 0.268D-03 0.678D-03-0.963D-02
 Coeff:     -0.190D-01 0.164D-01 0.311D+00 0.700D+00
 Gap=     0.337 Goal=   None    Shift=    0.000
 RMSDP=7.40D-08 MaxDP=2.99D-06 DE=-2.10D-10 OVMax= 1.61D-06

 Cycle  11  Pass 1  IDiag  1:
 RMSU=  3.08D-08    CP:  9.56D-01  9.10D-01  9.98D-01  7.16D-01  9.20D-01
                    CP:  1.08D+00  9.47D-01  9.81D-01  1.10D+00  9.16D-01
 E= -269.527119607211     Delta-E=       -0.000000000034 Rises=F Damp=F
 DIIS: error= 5.90D-08 at cycle  11 NSaved=  11.
 NSaved=11 IEnMin=11 EnMin= -269.527119607211     IErMin=11 ErrMin= 5.90D-08
 ErrMax= 5.90D-08  0.00D+00 EMaxC= 1.00D-01 BMatC= 6.67D-13 BMatP= 3.91D-11
 IDIUse=1 WtCom= 1.00D+00 WtEn= 0.00D+00
 Coeff-Com: -0.129D-05 0.290D-05 0.220D-04 0.386D-04 0.184D-03-0.613D-03
 Coeff-Com: -0.374D-02-0.115D-01-0.968D-02 0.742D-01 0.951D+00
 Coeff:     -0.129D-05 0.290D-05 0.220D-04 0.386D-04 0.184D-03-0.613D-03
 Coeff:     -0.374D-02-0.115D-01-0.968D-02 0.742D-01 0.951D+00
 Gap=     0.337 Goal=   None    Shift=    0.000
 RMSDP=1.60D-08 MaxDP=5.33D-07 DE=-3.40D-11 OVMax= 5.98D-07

 Cycle  12  Pass 1  IDiag  1:
 RMSU=  9.79D-09    CP:  9.56D-01  9.10D-01  9.98D-01  7.16D-01  9.20D-01
                    CP:  1.08D+00  9.48D-01  9.84D-01  1.12D+00  9.83D-01
                    CP:  1.11D+00
 E= -269.527119607212     Delta-E=       -0.000000000001 Rises=F Damp=F
 DIIS: error= 1.17D-08 at cycle  12 NSaved=  12.
 NSaved=12 IEnMin=12 EnMin= -269.527119607212     IErMin=12 ErrMin= 1.17D-08
 ErrMax= 1.17D-08  0.00D+00 EMaxC= 1.00D-01 BMatC= 5.22D-14 BMatP= 6.67D-13
 IDIUse=1 WtCom= 1.00D+00 WtEn= 0.00D+00
 Coeff-Com:  0.827D-06-0.160D-05-0.544D-05-0.110D-04-0.198D-04 0.520D-03
 Coeff-Com:  0.670D-03-0.281D-02-0.206D-01-0.343D-01 0.131D+00 0.925D+00
 Coeff:      0.827D-06-0.160D-05-0.544D-05-0.110D-04-0.198D-04 0.520D-03
 Coeff:      0.670D-03-0.281D-02-0.206D-01-0.343D-01 0.131D+00 0.925D+00
 Gap=     0.337 Goal=   None    Shift=    0.000
 RMSDP=4.72D-09 MaxDP=1.89D-07 DE=-1.14D-12 OVMax= 1.73D-07

 SCF Done:  E(RM062X) =  -269.527119607     A.U. after   12 cycles
            NFock= 12  Conv=0.47D-08     -V/T= 2.0039
 KE= 2.684908293878D+02 PE=-1.002576290760D+03 EE= 2.790699480480D+02
 Leave Link  502 at Mon Nov 10 19:35:46 2025, MaxMem=    33554432 cpu:        24.6
 (Enter /opt/programs/gaussian/g09/d_pgi133/l601.exe)
 Copying SCF densities to generalized density rwf, IOpCl= 0 IROHF=0.

 **********************************************************************

            Population analysis using the SCF density.

 **********************************************************************

 Orbital symmetries:
       Occupied  (A) (A) (A) (A) (A) (A) (A) (A) (A) (A) (A) (A)
                 (A) (A) (A) (A) (A) (A) (A) (A) (A)
       Virtual   (A) (A) (A) (A) (A) (A) (A) (A) (A) (A) (A) (A)
                 (A) (A) (A) (A) (A) (A) (A) (A) (A) (A) (A) (A)
                 (A) (A) (A) (A) (A) (A) (A) (A) (A) (A) (A) (A)
                 (A) (A) (A) (A) (A) (A) (A) (A) (A) (A) (A) (A)
                 (A) (A) (A) (A) (A) (A) (A) (A) (A) (A) (A) (A)
                 (A) (A) (A) (A) (A) (A) (A) (A) (A) (A) (A) (A)
                 (A) (A) (A) (A) (A) (A) (A) (A) (A) (A) (A) (A)
                 (A) (A) (A) (A) (A) (A) (A) (A) (A) (A) (A) (A)
                 (A) (A) (A) (A) (A) (A) (A) (A) (A) (A) (A) (A)
                 (A) (A) (A) (A) (A) (A) (A) (A) (A) (A) (A) (A)
                 (A) (A) (A) (A) (A) (A) (A) (A) (A) (A) (A) (A)
                 (A) (A) (A) (A) (A) (A) (A) (A) (A) (A) (A) (A)
                 (A)
 The electronic state is 1-A.
 Alpha  occ. eigenvalues --  -19.62959 -19.62281 -10.59432 -10.58556 -10.53721
 Alpha  occ. eigenvalues --   -1.15052  -1.14436  -0.87655  -0.76308  -0.68750
 Alpha  occ. eigenvalues --   -0.60580  -0.58934  -0.53290  -0.51849  -0.49467
 Alpha  occ. eigenvalues --   -0.46130  -0.44101  -0.40974  -0.39318  -0.36386
 Alpha  occ. eigenvalues --   -0.34340
 Alpha virt. eigenvalues --   -0.00645   0.00514   0.01493   0.01689   0.04320
 Alpha virt. eigenvalues --    0.04544   0.04825   0.05593   0.07579   0.09528
 Alpha virt. eigenvalues --    0.10229   0.11223   0.11826   0.12529   0.13280
 Alpha virt. eigenvalues --    0.13794   0.14083   0.15214   0.16147   0.16916
 Alpha virt. eigenvalues --    0.19444   0.20478   0.21367   0.21690   0.23413
 Alpha virt. eigenvalues --    0.24113   0.25026   0.26101   0.27289   0.29053
 Alpha virt. eigenvalues --    0.29939   0.31236   0.31341   0.31969   0.33466
 Alpha virt. eigenvalues --    0.35031   0.35733   0.38779   0.40641   0.41456
 Alpha virt. eigenvalues --    0.47300   0.48771   0.49967   0.55167   0.57434
 Alpha virt. eigenvalues --    0.59901   0.60418   0.62983   0.63472   0.68300
 Alpha virt. eigenvalues --    0.69214   0.70642   0.71177   0.73368   0.74695
 Alpha virt. eigenvalues --    0.76677   0.79198   0.92413   0.96364   0.97338
 Alpha virt. eigenvalues --    1.03338   1.06647   1.13119   1.14542   1.20082
 Alpha virt. eigenvalues --    1.21444   1.22967   1.29918   1.30578   1.35886
 Alpha virt. eigenvalues --    1.40273   1.41445   1.45606   1.46639   1.52332
 Alpha virt. eigenvalues --    1.55592   1.57811   1.60133   1.60926   1.61386
 Alpha virt. eigenvalues --    1.64401   1.65113   1.69326   1.72077   1.74077
 Alpha virt. eigenvalues --    1.77545   1.80601   1.81846   1.88339   1.90545
 Alpha virt. eigenvalues --    1.96139   2.02486   2.04122   2.07460   2.10945
 Alpha virt. eigenvalues --    2.14266   2.16272   2.21587   2.26547   2.32596
 Alpha virt. eigenvalues --    2.38632   2.45807   2.50764   2.51721   2.54509
 Alpha virt. eigenvalues --    2.57826   2.60021   2.61165   2.62357   2.66236
 Alpha virt. eigenvalues --    2.71280   2.74949   2.80169   2.86608   2.95394
 Alpha virt. eigenvalues --    2.97929   3.01874   3.13244   3.16161   3.18093
 Alpha virt. eigenvalues --    3.22336   3.26324   3.29663   3.37532   3.44720
 Alpha virt. eigenvalues --    3.73623   3.80673   3.86665   3.91468   3.93829
 Alpha virt. eigenvalues --    4.04922   4.08760   4.19833   4.35800   5.17017
 Alpha virt. eigenvalues --    5.19431   5.49040   5.50490   5.73062   5.75156
 Alpha virt. eigenvalues --   23.89401  23.92449  23.97932  50.02019  50.02887
          Condensed to atoms (all electrons):
               1          2          3          4          5          6
     1  C    5.577810   0.425161   0.359447  -0.022385  -0.071899  -0.045014
     2  H    0.425161   0.663100  -0.099653  -0.075053   0.009943  -0.015144
     3  H    0.359447  -0.099653   0.661056  -0.023005  -0.001628   0.017511
     4  C   -0.022385  -0.075053  -0.023005   5.690154   0.441085   0.452729
     5  H   -0.071899   0.009943  -0.001628   0.441085   0.556893  -0.070399
     6  H   -0.045014  -0.015144   0.017511   0.452729  -0.070399   0.563125
     7  C   -0.050077   0.003058  -0.008502  -0.074115   0.019610  -0.100049
     8  H    0.007733  -0.000455   0.005112   0.051828  -0.039503   0.026235
     9  H   -0.007304   0.001798  -0.011138  -0.060587   0.021824  -0.035063
    10  O    0.174255  -0.071219  -0.045965  -0.045187  -0.027986   0.021482
    11  H    0.022369   0.001003  -0.013794  -0.019870   0.003072  -0.003823
    12  O    0.034437  -0.002343   0.004397  -0.080218  -0.027026   0.026508
    13  H   -0.000051  -0.000961   0.000392   0.000342   0.014694  -0.009698
               7          8          9         10         11         12
     1  C   -0.050077   0.007733  -0.007304   0.174255   0.022369   0.034437
     2  H    0.003058  -0.000455   0.001798  -0.071219   0.001003  -0.002343
     3  H   -0.008502   0.005112  -0.011138  -0.045965  -0.013794   0.004397
     4  C   -0.074115   0.051828  -0.060587  -0.045187  -0.019870  -0.080218
     5  H    0.019610  -0.039503   0.021824  -0.027986   0.003072  -0.027026
     6  H   -0.100049   0.026235  -0.035063   0.021482  -0.003823   0.026508
     7  C    5.684496   0.259575   0.464989  -0.027627   0.004727   0.199400
     8  H    0.259575   0.651082  -0.092890   0.002432  -0.002733  -0.018516
     9  H    0.464989  -0.092890   0.614831  -0.000839   0.002217  -0.099303
    10  O   -0.027627   0.002432  -0.000839   8.053018   0.239865  -0.002179
    11  H    0.004727  -0.002733   0.002217   0.239865   0.505566  -0.000042
    12  O    0.199400  -0.018516  -0.099303  -0.002179  -0.000042   7.972905
    13  H   -0.028502  -0.021802   0.022252  -0.000178  -0.000106   0.256209
              13
     1  C   -0.000051
     2  H   -0.000961
     3  H    0.000392
     4  C    0.000342
     5  H    0.014694
     6  H   -0.009698
     7  C   -0.028502
     8  H   -0.021802
     9  H    0.022252
    10  O   -0.000178
    11  H   -0.000106
    12  O    0.256209
    13  H    0.518229
 Mulliken charges:
               1
     1  C   -0.404484
     2  H    0.160765
     3  H    0.155767
     4  C   -0.235719
     5  H    0.171317
     6  H    0.171600
     7  C   -0.346984
     8  H    0.171903
     9  H    0.179213
    10  O   -0.269875
    11  H    0.261549
    12  O   -0.264230
    13  H    0.249178
 Sum of Mulliken charges =   0.00000
 Mulliken charges with hydrogens summed into heavy atoms:
               1
     1  C   -0.087952
     4  C    0.107198
     7  C    0.004132
    10  O   -0.008326
    12  O   -0.015052
 Electronic spatial extent (au):  <R**2>=            595.9532
 Charge=              0.0000 electrons
 Dipole moment (field-independent basis, Debye):
    X=             -2.0329    Y=              0.5330    Z=             -0.5020  Tot=              2.1607
 Quadrupole moment (field-independent basis, Debye-Ang):
   XX=            -34.2575   YY=            -30.8086   ZZ=            -31.5568
   XY=             -5.7379   XZ=              2.8626   YZ=             -0.8595
 Traceless Quadrupole moment (field-independent basis, Debye-Ang):
   XX=             -2.0498   YY=              1.3990   ZZ=              0.6509
   XY=             -5.7379   XZ=              2.8626   YZ=             -0.8595
 Octapole moment (field-independent basis, Debye-Ang**2):
  XXX=            -42.4015  YYY=             -3.9147  ZZZ=             -0.7585  XYY=              7.9850
  XXY=             -4.3006  XXZ=             -5.6464  XZZ=             -0.6367  YZZ=             -0.7475
  YYZ=              1.2482  XYZ=             -3.7469
 Hexadecapole moment (field-independent basis, Debye-Ang**3):
 XXXX=           -536.6793 YYYY=            -85.8961 ZZZZ=            -84.4790 XXXY=            -19.6012
 XXXZ=             36.1637 YYYX=             -6.9572 YYYZ=             -1.7762 ZZZX=              3.9142
 ZZZY=              0.2861 XXYY=            -99.9253 XXZZ=           -105.1069 YYZZ=            -26.4203
 XXYZ=             -2.9397 YYXZ=              2.4666 ZZXY=             -1.1832
 N-N= 1.854883937168D+02 E-N=-1.002576291255D+03  KE= 2.684908293878D+02
 No NMR shielding tensors so no spin-rotation constants.
 Leave Link  601 at Mon Nov 10 19:35:46 2025, MaxMem=    33554432 cpu:         0.0
 (Enter /opt/programs/gaussian/g09/d_pgi133/l9999.exe)
 1\1\GINC-EXADE5\SP\RM062X\6-311++G(d,p)\C3H8O2\APINTO\10-Nov-2025\0\\#
 p M062X/6-311++G(d,p)\\SP\\0,1\C,0,1.388496,0.41447,0.280513\H,0,1.877
 029,1.394819,0.388747\H,0,1.330069,-0.026471,1.28956\C,0,-0.019992,0.5
 89915,-0.305335\H,0,0.022634,0.287934,-1.35872\H,0,-0.317217,1.644171,
 -0.285824\C,0,-1.086474,-0.217371,0.438249\H,0,-0.811483,-1.284905,0.4
 40738\H,0,-1.133105,0.104626,1.4845\O,0,2.134954,-0.421552,-0.602012\H
 ,0,2.998956,-0.582864,-0.201553\O,0,-2.394604,-0.015433,-0.079067\H,0,
 -2.401637,-0.346048,-0.987061\\Version=ES64L-G09RevD.01\State=1-A\HF=-
 269.5271196\RMSD=4.716e-09\Dipole=0.8161931,-0.0082544,0.2375056\Quadr
 upole=-0.9364195,0.0929166,0.8435029,1.2738425,4.7455444,0.1209354\PG=
 C01 [X(C3H8O2)]\\@


 WHEN A MATHEMATICIAN ENGAGED IN INVESTIGATING
 PHYSICAL ACTIONS AND RESULTS HAS ARRIVED AT HIS
 CONCLUSIONS, MAY THEY NOT BE EXPRESSED IN COMMON
 LANGUAGE AS FULLY, CLEARLY, AND DEFINITELY AS IN
 MATHEMATICAL FORMULAE?
           - LETTER FROM M. FARADAY TO J.C. MAXWELL, 1857.
 Job cpu time:       0 days  0 hours  0 minutes 26.3 seconds.
 File lengths (MBytes):  RWF=     16 Int=      0 D2E=      0 Chk=      2 Scr=      1
 Normal termination of Gaussian 09 at Mon Nov 10 19:35:46 2025.
