 Entering Gaussian System, Link 0=g09
 Input=xal.com
 Output=xal.log
 Initial command:
 /opt/programs/gaussian/g09/d_pgi133/l1.exe "/scratch/users/apinto/lixo/Gau-1264213.inp" -scrdir="/scratch/users/apinto/lixo/"
 Entering Link 1 = /opt/programs/gaussian/g09/d_pgi133/l1.exe PID=   1264215.
  
 Copyright (c) 1988,1990,1992,1993,1995,1998,2003,2009,2013,
            Gaussian, Inc.  All Rights Reserved.
  
 This is part of the Gaussian(R) 09 program.  It is based on
 the Gaussian(R) 03 system (copyright 2003, Gaussian, Inc.),
 the Gaussian(R) 98 system (copyright 1998, Gaussian, Inc.),
 the Gaussian(R) 94 system (copyright 1995, Gaussian, Inc.),
 the Gaussian 92(TM) system (copyright 1992, Gaussian, Inc.),
 the Gaussian 90(TM) system (copyright 1990, Gaussian, Inc.),
 the Gaussian 88(TM) system (copyright 1988, Gaussian, Inc.),
 the Gaussian 86(TM) system (copyright 1986, Carnegie Mellon
 University), and the Gaussian 82(TM) system (copyright 1983,
 Carnegie Mellon University). Gaussian is a federally registered
 trademark of Gaussian, Inc.
  
 This software contains proprietary and confidential information,
 including trade secrets, belonging to Gaussian, Inc.
  
 This software is provided under written license and may be
 used, copied, transmitted, or stored only in accord with that
 written license.
  
 The following legend is applicable only to US Government
 contracts under FAR:
  
                    RESTRICTED RIGHTS LEGEND
  
 Use, reproduction and disclosure by the US Government is
 subject to restrictions as set forth in subparagraphs (a)
 and (c) of the Commercial Computer Software - Restricted
 Rights clause in FAR 52.227-19.
  
 Gaussian, Inc.
 340 Quinnipiac St., Bldg. 40, Wallingford CT 06492
  
  
 ---------------------------------------------------------------
 Warning -- This program may not be used in any manner that
 competes with the business of Gaussian, Inc. or will provide
 assistance to any competitor of Gaussian, Inc.  The licensee
 of this program is prohibited from giving any competitor of
 Gaussian, Inc. access to this program.  By using this program,
 the user acknowledges that Gaussian, Inc. is engaged in the
 business of creating and licensing software in the field of
 computational chemistry and represents and warrants to the
 licensee that it is not a competitor of Gaussian, Inc. and that
 it will not use this program in any manner prohibited above.
 ---------------------------------------------------------------
  

 Cite this work as:
 Gaussian 09, Revision D.01,
 M. J. Frisch, G. W. Trucks, H. B. Schlegel, G. E. Scuseria, 
 M. A. Robb, J. R. Cheeseman, G. Scalmani, V. Barone, B. Mennucci, 
 G. A. Petersson, H. Nakatsuji, M. Caricato, X. Li, H. P. Hratchian, 
 A. F. Izmaylov, J. Bloino, G. Zheng, J. L. Sonnenberg, M. Hada, 
 M. Ehara, K. Toyota, R. Fukuda, J. Hasegawa, M. Ishida, T. Nakajima, 
 Y. Honda, O. Kitao, H. Nakai, T. Vreven, J. A. Montgomery, Jr., 
 J. E. Peralta, F. Ogliaro, M. Bearpark, J. J. Heyd, E. Brothers, 
 K. N. Kudin, V. N. Staroverov, T. Keith, R. Kobayashi, J. Normand, 
 K. Raghavachari, A. Rendell, J. C. Burant, S. S. Iyengar, J. Tomasi, 
 M. Cossi, N. Rega, J. M. Millam, M. Klene, J. E. Knox, J. B. Cross, 
 V. Bakken, C. Adamo, J. Jaramillo, R. Gomperts, R. E. Stratmann, 
 O. Yazyev, A. J. Austin, R. Cammi, C. Pomelli, J. W. Ochterski, 
 R. L. Martin, K. Morokuma, V. G. Zakrzewski, G. A. Voth, 
 P. Salvador, J. J. Dannenberg, S. Dapprich, A. D. Daniels, 
 O. Farkas, J. B. Foresman, J. V. Ortiz, J. Cioslowski, 
 and D. J. Fox, Gaussian, Inc., Wallingford CT, 2013.
 
 ******************************************
 Gaussian 09:  ES64L-G09RevD.01 24-Apr-2013
                10-Nov-2025 
 ******************************************
 ----------------------
 #p M062X/6-311++G(d,p)
 ----------------------
 1/38=1/1;
 2/12=2,17=6,18=5,40=1/2;
 3/5=4,6=6,7=1111,11=2,16=1,25=1,30=1,74=-55/1,2,3;
 4//1;
 5/5=2,38=5/2;
 6/7=2,8=2,9=2,10=2,28=1/1;
 99/5=1,9=1/99;
 Leave Link    1 at Mon Nov 10 19:37:05 2025, MaxMem=           0 cpu:         0.0
 (Enter /opt/programs/gaussian/g09/d_pgi133/l101.exe)
 --
 SP
 --
 Symbolic Z-matrix:
 Charge =  0 Multiplicity = 1
 C                     1.3812    0.31898   0.29463 
 H                     1.74923   1.27186   0.70384 
 H                     1.31505  -0.38691   1.14043 
 C                    -0.00621   0.5063   -0.33797 
 H                     0.02972   0.03656  -1.32901 
 H                    -0.23807   1.56479  -0.49248 
 C                    -1.1274   -0.13814   0.48092 
 H                    -0.91564  -1.21259   0.61042 
 H                    -1.16907   0.30188   1.48384 
 O                     2.26307  -0.18724  -0.70476 
 H                     3.13943  -0.27965  -0.3091 
 O                    -2.41491   0.07474  -0.08004 
 H                    -2.41878  -0.32931  -0.95798 
 
 NAtoms=     13 NQM=       13 NQMF=       0 NMMI=      0 NMMIF=      0
                NMic=       0 NMicF=      0.
                    Isotopes and Nuclear Properties:
 (Nuclear quadrupole moments (NQMom) in fm**2, nuclear magnetic moments (NMagM)
  in nuclear magnetons)

  Atom         1           2           3           4           5           6           7           8           9          10
 IAtWgt=          12           1           1          12           1           1          12           1           1          16
 AtmWgt=  12.0000000   1.0078250   1.0078250  12.0000000   1.0078250   1.0078250  12.0000000   1.0078250   1.0078250  15.9949146
 NucSpn=           0           1           1           0           1           1           0           1           1           0
 AtZEff=   0.0000000   0.0000000   0.0000000   0.0000000   0.0000000   0.0000000   0.0000000   0.0000000   0.0000000   0.0000000
 NQMom=    0.0000000   0.0000000   0.0000000   0.0000000   0.0000000   0.0000000   0.0000000   0.0000000   0.0000000   0.0000000
 NMagM=    0.0000000   2.7928460   2.7928460   0.0000000   2.7928460   2.7928460   0.0000000   2.7928460   2.7928460   0.0000000
 AtZNuc=   6.0000000   1.0000000   1.0000000   6.0000000   1.0000000   1.0000000   6.0000000   1.0000000   1.0000000   8.0000000

  Atom        11          12          13
 IAtWgt=           1          16           1
 AtmWgt=   1.0078250  15.9949146   1.0078250
 NucSpn=           1           0           1
 AtZEff=   0.0000000   0.0000000   0.0000000
 NQMom=    0.0000000   0.0000000   0.0000000
 NMagM=    2.7928460   0.0000000   2.7928460
 AtZNuc=   1.0000000   8.0000000   1.0000000
 Leave Link  101 at Mon Nov 10 19:37:05 2025, MaxMem=    33554432 cpu:         0.0
 (Enter /opt/programs/gaussian/g09/d_pgi133/l202.exe)
                          Input orientation:                          
 ---------------------------------------------------------------------
 Center     Atomic      Atomic             Coordinates (Angstroms)
 Number     Number       Type             X           Y           Z
 ---------------------------------------------------------------------
      1          6           0        1.381198    0.318983    0.294625
      2          1           0        1.749234    1.271862    0.703843
      3          1           0        1.315049   -0.386914    1.140434
      4          6           0       -0.006208    0.506304   -0.337974
      5          1           0        0.029715    0.036564   -1.329014
      6          1           0       -0.238072    1.564789   -0.492479
      7          6           0       -1.127400   -0.138140    0.480922
      8          1           0       -0.915639   -1.212587    0.610423
      9          1           0       -1.169068    0.301883    1.483841
     10          8           0        2.263072   -0.187236   -0.704761
     11          1           0        3.139434   -0.279652   -0.309103
     12          8           0       -2.414914    0.074741   -0.080042
     13          1           0       -2.418775   -0.329305   -0.957980
 ---------------------------------------------------------------------
                    Distance matrix (angstroms):
                    1          2          3          4          5
     1  C    0.000000
     2  H    1.100404   0.000000
     3  H    1.103657   1.769369   0.000000
     4  C    1.536283   2.180146   2.174684   0.000000
     5  H    2.131307   2.935169   2.815953   1.097318   0.000000
     6  H    2.189429   2.338029   2.981230   1.094542   1.762661
     7  C    2.556703   3.211358   2.542125   1.530676   2.155297
     8  H    2.778650   3.644552   2.436928   2.163587   2.493088
     9  H    2.813962   3.172655   2.600617   2.170954   3.069141
    10  O    1.425739   2.092167   2.084074   2.401075   2.329734
    11  H    1.953009   2.316444   2.332604   3.242472   3.287942
    12  O    3.822368   4.403147   3.951621   2.460618   2.745469
    13  H    4.053282   4.764209   4.283468   2.627381   2.503324
                    6          7          8          9         10
     6  H    0.000000
     7  C    2.153690   0.000000
     8  H    3.064198   1.102746   0.000000
     9  H    2.523396   1.095994   1.766552   0.000000
    10  O    3.061107   3.592152   3.589604   4.099854   0.000000
    11  H    3.852679   4.341663   4.261398   4.702767   0.965969
    12  O    2.670017   1.420455   2.093270   2.012326   4.726781
    13  H    2.925705   1.942841   2.345100   2.814721   4.690842
                   11         12         13
    11  H    0.000000
    12  O    5.570354   0.000000
    13  H    5.596177   0.966459   0.000000
 Stoichiometry    C3H8O2
 Framework group  C1[X(C3H8O2)]
 Deg. of freedom    33
 Full point group                 C1      NOp   1
 Largest Abelian subgroup         C1      NOp   1
 Largest concise Abelian subgroup C1      NOp   1
                         Standard orientation:                         
 ---------------------------------------------------------------------
 Center     Atomic      Atomic             Coordinates (Angstroms)
 Number     Number       Type             X           Y           Z
 ---------------------------------------------------------------------
      1          6           0       -1.304243    0.484148    0.191655
      2          1           0       -1.640104    0.965970    1.122210
      3          1           0       -1.162533    1.288448   -0.550692
      4          6           0        0.022872   -0.255723    0.418637
      5          1           0       -0.095866   -1.260257   -0.006710
      6          1           0        0.235820   -0.381534    1.484868
      7          6           0        1.213132    0.434302   -0.252271
      8          1           0        1.018139    0.532786   -1.333164
      9          1           0        1.338748    1.448825    0.142908
     10          8           0       -2.266353   -0.457965   -0.276855
     11          1           0       -3.105086    0.006640   -0.394176
     12          8           0        2.446759   -0.224569   -0.003788
     13          1           0        2.377069   -1.116968   -0.368221
 ---------------------------------------------------------------------
 Rotational constants (GHZ):     17.8013787      2.0308374      1.9709683
 Leave Link  202 at Mon Nov 10 19:37:05 2025, MaxMem=    33554432 cpu:         0.0
 (Enter /opt/programs/gaussian/g09/d_pgi133/l301.exe)
 Standard basis: 6-311++G(d,p) (5D, 7F)
 Ernie: Thresh=  0.10000D-02 Tol=  0.10000D-05 Strict=F.
 There are   171 symmetry adapted cartesian basis functions of A   symmetry.
 There are   166 symmetry adapted basis functions of A   symmetry.
   166 basis functions,   252 primitive gaussians,   171 cartesian basis functions
    21 alpha electrons       21 beta electrons
       nuclear repulsion energy       184.7896612191 Hartrees.
 IExCor= 4336 DFT=T Ex+Corr=M062X ExCW=0 ScaHFX=  0.540000
 ScaDFX=  1.000000  1.000000  1.000000  1.000000 ScalE2=  1.000000  1.000000
 IRadAn=      0 IRanWt=     -1 IRanGd=            0 ICorTp=0 IEmpDi=  4
 NAtoms=   13 NActive=   13 NUniq=   13 SFac= 1.00D+00 NAtFMM=   60 NAOKFM=F Big=F
 Integral buffers will be    131072 words long.
 Raffenetti 2 integral format.
 Two-electron integral symmetry is turned on.
 Leave Link  301 at Mon Nov 10 19:37:05 2025, MaxMem=    33554432 cpu:         0.0
 (Enter /opt/programs/gaussian/g09/d_pgi133/l302.exe)
 NPDir=0 NMtPBC=     1 NCelOv=     1 NCel=       1 NClECP=     1 NCelD=      1
         NCelK=      1 NCelE2=     1 NClLst=     1 CellRange=     0.0.
 One-electron integrals computed using PRISM.
 NBasis=   166 RedAO= T EigKep=  4.31D-05  NBF=   166
 NBsUse=   166 1.00D-06 EigRej= -1.00D+00 NBFU=   166
 Precomputing XC quadrature grid using
 IXCGrd= 4 IRadAn=           0 IRanWt=          -1 IRanGd=           0 AccXCQ= 0.00D+00.
 Generated NRdTot=       0 NPtTot=           0 NUsed=           0 NTot=          32
 NSgBfM=   171   171   171   171   171 MxSgAt=    13 MxSgA2=    13.
 Leave Link  302 at Mon Nov 10 19:37:05 2025, MaxMem=    33554432 cpu:         0.1
 (Enter /opt/programs/gaussian/g09/d_pgi133/l303.exe)
 DipDrv:  MaxL=1.
 Leave Link  303 at Mon Nov 10 19:37:05 2025, MaxMem=    33554432 cpu:         0.0
 (Enter /opt/programs/gaussian/g09/d_pgi133/l401.exe)
 ExpMin= 3.60D-02 ExpMax= 8.59D+03 ExpMxC= 1.30D+03 IAcc=3 IRadAn=         5 AccDes= 0.00D+00
 Harris functional with IExCor= 1009 and IRadAn=       5 diagonalized for initial guess.
 HarFok:  IExCor= 1009 AccDes= 0.00D+00 IRadAn=         5 IDoV= 1 UseB2=F ITyADJ=14
 ICtDFT=  3500011 ScaDFX=  1.000000  1.000000  1.000000  1.000000
 FoFCou: FMM=F IPFlag=           0 FMFlag=      100000 FMFlg1=           0
         NFxFlg=           0 DoJE=T BraDBF=F KetDBF=T FulRan=T
         wScrn=  0.000000 ICntrl=     500 IOpCl=  0 I1Cent=   200000004 NGrid=           0
         NMat0=    1 NMatS0=      1 NMatT0=    0 NMatD0=    1 NMtDS0=    0 NMtDT0=    0
 Petite list used in FoFCou.
 Harris En= -269.439335344734    
 JPrj=0 DoOrth=F DoCkMO=F.
 Leave Link  401 at Mon Nov 10 19:37:07 2025, MaxMem=    33554432 cpu:         1.5
 (Enter /opt/programs/gaussian/g09/d_pgi133/l502.exe)
 Closed shell SCF:
 Using DIIS extrapolation, IDIIS=  1040.
 Integral symmetry usage will be decided dynamically.
 IVT=      108587 IEndB=      108587 NGot=    33554432 MDV=    33491898
 LenX=    33491898 LenY=    33462216
 Requested convergence on RMS density matrix=1.00D-08 within 128 cycles.
 Requested convergence on MAX density matrix=1.00D-06.
 Requested convergence on             energy=1.00D-06.
 No special actions if energy rises.
 Fock matrices will be formed incrementally for  20 cycles.

 Cycle   1  Pass 1  IDiag  1:
 FoFJK:  IHMeth= 1 ICntrl=       0 DoSepK=F KAlg= 0 I1Cent=   0 FoldK=F
 IRaf= 970000000 NMat=   1 IRICut=       1 DoRegI=T DoRafI=F ISym2E= 0.
 FoFCou: FMM=F IPFlag=           0 FMFlag=      100000 FMFlg1=           0
         NFxFlg=           0 DoJE=F BraDBF=F KetDBF=F FulRan=T
         wScrn=  0.000000 ICntrl=       0 IOpCl=  0 I1Cent=           0 NGrid=           0
         NMat0=    1 NMatS0=      1 NMatT0=    0 NMatD0=    1 NMtDS0=    0 NMtDT0=    0
 Symmetry not used in FoFCou.
 E= -269.359966236002    
 DIIS: error= 2.59D-02 at cycle   1 NSaved=   1.
 NSaved= 1 IEnMin= 1 EnMin= -269.359966236002     IErMin= 1 ErrMin= 2.59D-02
 ErrMax= 2.59D-02  0.00D+00 EMaxC= 1.00D-01 BMatC= 2.33D-01 BMatP= 2.33D-01
 IDIUse=3 WtCom= 7.41D-01 WtEn= 2.59D-01
 Coeff-Com:  0.100D+01
 Coeff-En:   0.100D+01
 Coeff:      0.100D+01
 Gap=     0.312 Goal=   None    Shift=    0.000
 GapD=    0.312 DampG=1.000 DampE=0.500 DampFc=0.5000 IDamp=-1.
 Damping current iteration by 5.00D-01
 RMSDP=6.44D-03 MaxDP=2.03D-01              OVMax= 1.33D-01

 Cycle   2  Pass 1  IDiag  1:
 RMSU=  3.21D-03    CP:  9.80D-01
 E= -269.440580754205     Delta-E=       -0.080614518202 Rises=F Damp=T
 DIIS: error= 9.11D-03 at cycle   2 NSaved=   2.
 NSaved= 2 IEnMin= 2 EnMin= -269.440580754205     IErMin= 2 ErrMin= 9.11D-03
 ErrMax= 9.11D-03  0.00D+00 EMaxC= 1.00D-01 BMatC= 1.51D-02 BMatP= 2.33D-01
 IDIUse=3 WtCom= 9.09D-01 WtEn= 9.11D-02
 Coeff-Com: -0.413D-01 0.104D+01
 Coeff-En:   0.000D+00 0.100D+01
 Coeff:     -0.375D-01 0.104D+01
 Gap=     0.352 Goal=   None    Shift=    0.000
 RMSDP=1.83D-03 MaxDP=6.75D-02 DE=-8.06D-02 OVMax= 7.36D-02

 Cycle   3  Pass 1  IDiag  1:
 RMSU=  1.80D-03    CP:  9.62D-01  9.36D-01
 E= -269.523746256332     Delta-E=       -0.083165502127 Rises=F Damp=F
 DIIS: error= 3.59D-03 at cycle   3 NSaved=   3.
 NSaved= 3 IEnMin= 3 EnMin= -269.523746256332     IErMin= 3 ErrMin= 3.59D-03
 ErrMax= 3.59D-03  0.00D+00 EMaxC= 1.00D-01 BMatC= 3.96D-03 BMatP= 1.51D-02
 IDIUse=3 WtCom= 9.64D-01 WtEn= 3.59D-02
 Coeff-Com: -0.765D-01 0.318D+00 0.759D+00
 Coeff-En:   0.000D+00 0.000D+00 0.100D+01
 Coeff:     -0.737D-01 0.306D+00 0.767D+00
 Gap=     0.345 Goal=   None    Shift=    0.000
 RMSDP=3.69D-04 MaxDP=1.08D-02 DE=-8.32D-02 OVMax= 1.17D-02

 Cycle   4  Pass 1  IDiag  1:
 RMSU=  3.32D-04    CP:  9.63D-01  9.86D-01  1.00D+00
 E= -269.525768229342     Delta-E=       -0.002021973010 Rises=F Damp=F
 DIIS: error= 1.84D-03 at cycle   4 NSaved=   4.
 NSaved= 4 IEnMin= 4 EnMin= -269.525768229342     IErMin= 4 ErrMin= 1.84D-03
 ErrMax= 1.84D-03  0.00D+00 EMaxC= 1.00D-01 BMatC= 8.04D-04 BMatP= 3.96D-03
 IDIUse=3 WtCom= 9.82D-01 WtEn= 1.84D-02
 Coeff-Com: -0.318D-01 0.829D-01 0.377D+00 0.572D+00
 Coeff-En:   0.000D+00 0.000D+00 0.141D+00 0.859D+00
 Coeff:     -0.312D-01 0.813D-01 0.372D+00 0.577D+00
 Gap=     0.342 Goal=   None    Shift=    0.000
 RMSDP=1.72D-04 MaxDP=5.83D-03 DE=-2.02D-03 OVMax= 4.73D-03

 Cycle   5  Pass 1  IDiag  1:
 RMSU=  9.71D-05    CP:  9.61D-01  9.72D-01  1.01D+00  6.15D-01
 E= -269.526432382479     Delta-E=       -0.000664153137 Rises=F Damp=F
 DIIS: error= 1.64D-04 at cycle   5 NSaved=   5.
 NSaved= 5 IEnMin= 5 EnMin= -269.526432382479     IErMin= 5 ErrMin= 1.64D-04
 ErrMax= 1.64D-04  0.00D+00 EMaxC= 1.00D-01 BMatC= 7.18D-06 BMatP= 8.04D-04
 IDIUse=3 WtCom= 9.98D-01 WtEn= 1.64D-03
 Coeff-Com: -0.337D-02 0.458D-02 0.471D-01 0.130D+00 0.821D+00
 Coeff-En:   0.000D+00 0.000D+00 0.000D+00 0.000D+00 0.100D+01
 Coeff:     -0.336D-02 0.458D-02 0.470D-01 0.130D+00 0.822D+00
 Gap=     0.342 Goal=   None    Shift=    0.000
 RMSDP=3.09D-05 MaxDP=1.84D-03 DE=-6.64D-04 OVMax= 5.94D-04

 Cycle   6  Pass 1  IDiag  1:
 RMSU=  2.29D-05    CP:  9.61D-01  9.70D-01  1.01D+00  6.58D-01  9.04D-01
 E= -269.526438475066     Delta-E=       -0.000006092587 Rises=F Damp=F
 DIIS: error= 2.09D-05 at cycle   6 NSaved=   6.
 NSaved= 6 IEnMin= 6 EnMin= -269.526438475066     IErMin= 6 ErrMin= 2.09D-05
 ErrMax= 2.09D-05  0.00D+00 EMaxC= 1.00D-01 BMatC= 1.70D-07 BMatP= 7.18D-06
 IDIUse=1 WtCom= 1.00D+00 WtEn= 0.00D+00
 Coeff-Com:  0.602D-03-0.183D-02-0.492D-02-0.816D-04 0.855D-01 0.921D+00
 Coeff:      0.602D-03-0.183D-02-0.492D-02-0.816D-04 0.855D-01 0.921D+00
 Gap=     0.342 Goal=   None    Shift=    0.000
 RMSDP=1.15D-05 MaxDP=6.19D-04 DE=-6.09D-06 OVMax= 1.53D-04

 Cycle   7  Pass 1  IDiag  1:
 RMSU=  6.22D-06    CP:  9.61D-01  9.67D-01  1.01D+00  6.61D-01  9.45D-01
                    CP:  1.07D+00
 E= -269.526438653994     Delta-E=       -0.000000178927 Rises=F Damp=F
 DIIS: error= 1.44D-05 at cycle   7 NSaved=   7.
 NSaved= 7 IEnMin= 7 EnMin= -269.526438653994     IErMin= 7 ErrMin= 1.44D-05
 ErrMax= 1.44D-05  0.00D+00 EMaxC= 1.00D-01 BMatC= 4.88D-08 BMatP= 1.70D-07
 IDIUse=1 WtCom= 1.00D+00 WtEn= 0.00D+00
 Coeff-Com:  0.555D-03-0.116D-02-0.619D-02-0.114D-01-0.392D-01 0.360D+00
 Coeff-Com:  0.697D+00
 Coeff:      0.555D-03-0.116D-02-0.619D-02-0.114D-01-0.392D-01 0.360D+00
 Coeff:      0.697D+00
 Gap=     0.342 Goal=   None    Shift=    0.000
 RMSDP=2.05D-06 MaxDP=9.96D-05 DE=-1.79D-07 OVMax= 4.71D-05

 Cycle   8  Pass 1  IDiag  1:
 RMSU=  8.97D-07    CP:  9.61D-01  9.67D-01  1.01D+00  6.62D-01  9.46D-01
                    CP:  1.13D+00  8.80D-01
 E= -269.526438699782     Delta-E=       -0.000000045789 Rises=F Damp=F
 DIIS: error= 2.67D-06 at cycle   8 NSaved=   8.
 NSaved= 8 IEnMin= 8 EnMin= -269.526438699782     IErMin= 8 ErrMin= 2.67D-06
 ErrMax= 2.67D-06  0.00D+00 EMaxC= 1.00D-01 BMatC= 2.45D-09 BMatP= 4.88D-08
 IDIUse=1 WtCom= 1.00D+00 WtEn= 0.00D+00
 Coeff-Com:  0.145D-03-0.283D-03-0.180D-02-0.378D-02-0.183D-01 0.717D-01
 Coeff-Com:  0.237D+00 0.715D+00
 Coeff:      0.145D-03-0.283D-03-0.180D-02-0.378D-02-0.183D-01 0.717D-01
 Coeff:      0.237D+00 0.715D+00
 Gap=     0.342 Goal=   None    Shift=    0.000
 RMSDP=5.40D-07 MaxDP=2.14D-05 DE=-4.58D-08 OVMax= 1.28D-05

 Cycle   9  Pass 1  IDiag  1:
 RMSU=  3.36D-07    CP:  9.61D-01  9.67D-01  1.01D+00  6.62D-01  9.47D-01
                    CP:  1.13D+00  9.18D-01  9.90D-01
 E= -269.526438701755     Delta-E=       -0.000000001973 Rises=F Damp=F
 DIIS: error= 9.73D-07 at cycle   9 NSaved=   9.
 NSaved= 9 IEnMin= 9 EnMin= -269.526438701755     IErMin= 9 ErrMin= 9.73D-07
 ErrMax= 9.73D-07  0.00D+00 EMaxC= 1.00D-01 BMatC= 2.93D-10 BMatP= 2.45D-09
 IDIUse=1 WtCom= 1.00D+00 WtEn= 0.00D+00
 Coeff-Com:  0.698D-06 0.293D-05-0.120D-03-0.369D-03-0.330D-02-0.546D-02
 Coeff-Com:  0.252D-01 0.271D+00 0.713D+00
 Coeff:      0.698D-06 0.293D-05-0.120D-03-0.369D-03-0.330D-02-0.546D-02
 Coeff:      0.252D-01 0.271D+00 0.713D+00
 Gap=     0.342 Goal=   None    Shift=    0.000
 RMSDP=1.31D-07 MaxDP=3.20D-06 DE=-1.97D-09 OVMax= 4.22D-06

 Cycle  10  Pass 1  IDiag  1:
 RMSU=  9.39D-08    CP:  9.61D-01  9.67D-01  1.01D+00  6.62D-01  9.46D-01
                    CP:  1.13D+00  9.22D-01  1.05D+00  1.02D+00
 E= -269.526438701971     Delta-E=       -0.000000000216 Rises=F Damp=F
 DIIS: error= 3.14D-07 at cycle  10 NSaved=  10.
 NSaved=10 IEnMin=10 EnMin= -269.526438701971     IErMin=10 ErrMin= 3.14D-07
 ErrMax= 3.14D-07  0.00D+00 EMaxC= 1.00D-01 BMatC= 3.70D-11 BMatP= 2.93D-10
 IDIUse=1 WtCom= 1.00D+00 WtEn= 0.00D+00
 Coeff-Com: -0.163D-04 0.338D-04 0.154D-03 0.278D-03 0.749D-03-0.103D-01
 Coeff-Com: -0.185D-01 0.236D-01 0.299D+00 0.705D+00
 Coeff:     -0.163D-04 0.338D-04 0.154D-03 0.278D-03 0.749D-03-0.103D-01
 Coeff:     -0.185D-01 0.236D-01 0.299D+00 0.705D+00
 Gap=     0.342 Goal=   None    Shift=    0.000
 RMSDP=7.36D-08 MaxDP=3.35D-06 DE=-2.16D-10 OVMax= 1.61D-06

 Cycle  11  Pass 1  IDiag  1:
 RMSU=  2.98D-08    CP:  9.61D-01  9.67D-01  1.01D+00  6.62D-01  9.46D-01
                    CP:  1.13D+00  9.30D-01  1.07D+00  1.07D+00  8.86D-01
 E= -269.526438702004     Delta-E=       -0.000000000033 Rises=F Damp=F
 DIIS: error= 5.75D-08 at cycle  11 NSaved=  11.
 NSaved=11 IEnMin=11 EnMin= -269.526438702004     IErMin=11 ErrMin= 5.75D-08
 ErrMax= 5.75D-08  0.00D+00 EMaxC= 1.00D-01 BMatC= 6.04D-13 BMatP= 3.70D-11
 IDIUse=1 WtCom= 1.00D+00 WtEn= 0.00D+00
 Coeff-Com: -0.889D-06 0.212D-05 0.176D-04 0.298D-04 0.161D-03-0.439D-03
 Coeff-Com: -0.287D-02-0.123D-01-0.112D-01 0.658D-01 0.961D+00
 Coeff:     -0.889D-06 0.212D-05 0.176D-04 0.298D-04 0.161D-03-0.439D-03
 Coeff:     -0.287D-02-0.123D-01-0.112D-01 0.658D-01 0.961D+00
 Gap=     0.342 Goal=   None    Shift=    0.000
 RMSDP=1.58D-08 MaxDP=4.90D-07 DE=-3.26D-11 OVMax= 5.82D-07

 Cycle  12  Pass 1  IDiag  1:
 RMSU=  9.95D-09    CP:  9.61D-01  9.67D-01  1.01D+00  6.62D-01  9.47D-01
                    CP:  1.13D+00  9.31D-01  1.08D+00  1.09D+00  9.52D-01
                    CP:  1.11D+00
 E= -269.526438702007     Delta-E=       -0.000000000003 Rises=F Damp=F
 DIIS: error= 1.43D-08 at cycle  12 NSaved=  12.
 NSaved=12 IEnMin=12 EnMin= -269.526438702007     IErMin=12 ErrMin= 1.43D-08
 ErrMax= 1.43D-08  0.00D+00 EMaxC= 1.00D-01 BMatC= 6.29D-14 BMatP= 6.04D-13
 IDIUse=1 WtCom= 1.00D+00 WtEn= 0.00D+00
 Coeff-Com:  0.808D-06-0.154D-05-0.474D-05-0.989D-05-0.128D-04 0.533D-03
 Coeff-Com:  0.496D-03-0.430D-02-0.204D-01-0.299D-01 0.203D+00 0.851D+00
 Coeff:      0.808D-06-0.154D-05-0.474D-05-0.989D-05-0.128D-04 0.533D-03
 Coeff:      0.496D-03-0.430D-02-0.204D-01-0.299D-01 0.203D+00 0.851D+00
 Gap=     0.342 Goal=   None    Shift=    0.000
 RMSDP=4.06D-09 MaxDP=1.64D-07 DE=-2.84D-12 OVMax= 1.60D-07

 SCF Done:  E(RM062X) =  -269.526438702     A.U. after   12 cycles
            NFock= 12  Conv=0.41D-08     -V/T= 2.0039
 KE= 2.684904261519D+02 PE=-1.001148317879D+03 EE= 2.783417918059D+02
 Leave Link  502 at Mon Nov 10 19:37:31 2025, MaxMem=    33554432 cpu:        24.5
 (Enter /opt/programs/gaussian/g09/d_pgi133/l601.exe)
 Copying SCF densities to generalized density rwf, IOpCl= 0 IROHF=0.

 **********************************************************************

            Population analysis using the SCF density.

 **********************************************************************

 Orbital symmetries:
       Occupied  (A) (A) (A) (A) (A) (A) (A) (A) (A) (A) (A) (A)
                 (A) (A) (A) (A) (A) (A) (A) (A) (A)
       Virtual   (A) (A) (A) (A) (A) (A) (A) (A) (A) (A) (A) (A)
                 (A) (A) (A) (A) (A) (A) (A) (A) (A) (A) (A) (A)
                 (A) (A) (A) (A) (A) (A) (A) (A) (A) (A) (A) (A)
                 (A) (A) (A) (A) (A) (A) (A) (A) (A) (A) (A) (A)
                 (A) (A) (A) (A) (A) (A) (A) (A) (A) (A) (A) (A)
                 (A) (A) (A) (A) (A) (A) (A) (A) (A) (A) (A) (A)
                 (A) (A) (A) (A) (A) (A) (A) (A) (A) (A) (A) (A)
                 (A) (A) (A) (A) (A) (A) (A) (A) (A) (A) (A) (A)
                 (A) (A) (A) (A) (A) (A) (A) (A) (A) (A) (A) (A)
                 (A) (A) (A) (A) (A) (A) (A) (A) (A) (A) (A) (A)
                 (A) (A) (A) (A) (A) (A) (A) (A) (A) (A) (A) (A)
                 (A) (A) (A) (A) (A) (A) (A) (A) (A) (A) (A) (A)
                 (A)
 The electronic state is 1-A.
 Alpha  occ. eigenvalues --  -19.62981 -19.62398 -10.59458 -10.58767 -10.53749
 Alpha  occ. eigenvalues --   -1.15087  -1.14581  -0.87733  -0.76277  -0.68942
 Alpha  occ. eigenvalues --   -0.60402  -0.59209  -0.52876  -0.52300  -0.49767
 Alpha  occ. eigenvalues --   -0.46279  -0.44030  -0.40947  -0.39400  -0.35914
 Alpha  occ. eigenvalues --   -0.34864
 Alpha virt. eigenvalues --   -0.00641   0.00411   0.01462   0.01687   0.04185
 Alpha virt. eigenvalues --    0.04539   0.04911   0.05387   0.08230   0.09543
 Alpha virt. eigenvalues --    0.09804   0.11219   0.11599   0.12432   0.13295
 Alpha virt. eigenvalues --    0.13646   0.14105   0.14848   0.16329   0.16596
 Alpha virt. eigenvalues --    0.19658   0.20659   0.21006   0.22448   0.22901
 Alpha virt. eigenvalues --    0.23498   0.25042   0.25679   0.27363   0.29318
 Alpha virt. eigenvalues --    0.29920   0.31083   0.32211   0.32684   0.33074
 Alpha virt. eigenvalues --    0.33986   0.35913   0.38448   0.40109   0.41252
 Alpha virt. eigenvalues --    0.47010   0.48402   0.48885   0.55900   0.57315
 Alpha virt. eigenvalues --    0.59604   0.60850   0.61682   0.64508   0.68089
 Alpha virt. eigenvalues --    0.69420   0.69968   0.71186   0.72798   0.73162
 Alpha virt. eigenvalues --    0.76391   0.78878   0.91789   0.93737   0.96757
 Alpha virt. eigenvalues --    1.05667   1.06724   1.13356   1.13759   1.20273
 Alpha virt. eigenvalues --    1.20841   1.23167   1.30250   1.30888   1.35317
 Alpha virt. eigenvalues --    1.37778   1.42753   1.44714   1.46066   1.52813
 Alpha virt. eigenvalues --    1.56095   1.57348   1.59986   1.60458   1.61095
 Alpha virt. eigenvalues --    1.64312   1.65166   1.68925   1.72026   1.73336
 Alpha virt. eigenvalues --    1.78033   1.79949   1.81369   1.88435   1.90883
 Alpha virt. eigenvalues --    1.94268   2.02912   2.05675   2.08719   2.10867
 Alpha virt. eigenvalues --    2.13191   2.15009   2.19247   2.27017   2.31041
 Alpha virt. eigenvalues --    2.37554   2.47240   2.49966   2.52066   2.54814
 Alpha virt. eigenvalues --    2.57086   2.58547   2.61265   2.61813   2.68954
 Alpha virt. eigenvalues --    2.73248   2.75291   2.80391   2.86231   2.95629
 Alpha virt. eigenvalues --    2.96511   3.02188   3.12476   3.16527   3.18045
 Alpha virt. eigenvalues --    3.22097   3.26443   3.28983   3.36963   3.46275
 Alpha virt. eigenvalues --    3.74051   3.79975   3.85120   3.91214   3.93550
 Alpha virt. eigenvalues --    4.05118   4.09121   4.19620   4.35596   5.16362
 Alpha virt. eigenvalues --    5.19290   5.48442   5.50635   5.73004   5.74779
 Alpha virt. eigenvalues --   23.89164  23.91893  23.97502  50.01546  50.02753
          Condensed to atoms (all electrons):
               1          2          3          4          5          6
     1  C    5.516511   0.382501   0.404685  -0.022170  -0.068588  -0.063055
     2  H    0.382501   0.641391  -0.094355  -0.012045   0.008922  -0.029485
     3  H    0.404685  -0.094355   0.664643  -0.048285  -0.006169   0.026769
     4  C   -0.022170  -0.012045  -0.048285   5.761093   0.442790   0.452865
     5  H   -0.068588   0.008922  -0.006169   0.442790   0.557139  -0.071065
     6  H   -0.063055  -0.029485   0.026769   0.452865  -0.071065   0.571057
     7  C    0.014457   0.007930  -0.037447  -0.162384   0.020210  -0.091302
     8  H   -0.027160  -0.001944   0.016896   0.086900  -0.047124   0.025366
     9  H    0.010639  -0.002446  -0.013608  -0.054580   0.020918  -0.029703
    10  O    0.173462  -0.053587  -0.064714  -0.105775  -0.014428   0.019845
    11  H    0.023345  -0.005891  -0.005761  -0.016943   0.001875  -0.003245
    12  O    0.030524  -0.002241   0.005972  -0.082964  -0.028238   0.022750
    13  H    0.001799  -0.001287   0.000490   0.003739   0.014468  -0.008869
               7          8          9         10         11         12
     1  C    0.014457  -0.027160   0.010639   0.173462   0.023345   0.030524
     2  H    0.007930  -0.001944  -0.002446  -0.053587  -0.005891  -0.002241
     3  H   -0.037447   0.016896  -0.013608  -0.064714  -0.005761   0.005972
     4  C   -0.162384   0.086900  -0.054580  -0.105775  -0.016943  -0.082964
     5  H    0.020210  -0.047124   0.020918  -0.014428   0.001875  -0.028238
     6  H   -0.091302   0.025366  -0.029703   0.019845  -0.003245   0.022750
     7  C    5.737177   0.231745   0.456710   0.020226   0.000372   0.195174
     8  H    0.231745   0.680012  -0.094736  -0.005736  -0.001317  -0.011446
     9  H    0.456710  -0.094736   0.601265  -0.000849   0.001598  -0.099817
    10  O    0.020226  -0.005736  -0.000849   8.071476   0.243533  -0.001897
    11  H    0.000372  -0.001317   0.001598   0.243533   0.502396  -0.000094
    12  O    0.195174  -0.011446  -0.099817  -0.001897  -0.000094   7.978579
    13  H   -0.030928  -0.021028   0.021745  -0.000283  -0.000045   0.253191
              13
     1  C    0.001799
     2  H   -0.001287
     3  H    0.000490
     4  C    0.003739
     5  H    0.014468
     6  H   -0.008869
     7  C   -0.030928
     8  H   -0.021028
     9  H    0.021745
    10  O   -0.000283
    11  H   -0.000045
    12  O    0.253191
    13  H    0.518499
 Mulliken charges:
               1
     1  C   -0.376949
     2  H    0.162537
     3  H    0.150883
     4  C   -0.242242
     5  H    0.169289
     6  H    0.178070
     7  C   -0.361940
     8  H    0.169573
     9  H    0.182863
    10  O   -0.281275
    11  H    0.260178
    12  O   -0.259494
    13  H    0.248508
 Sum of Mulliken charges =   0.00000
 Mulliken charges with hydrogens summed into heavy atoms:
               1
     1  C   -0.063530
     4  C    0.105117
     7  C   -0.009504
    10  O   -0.021098
    12  O   -0.010986
 Electronic spatial extent (au):  <R**2>=            612.7040
 Charge=              0.0000 electrons
 Dipole moment (field-independent basis, Debye):
    X=             -1.8592    Y=              0.9486    Z=             -0.4404  Tot=              2.1332
 Quadrupole moment (field-independent basis, Debye-Ang):
   XX=            -34.6908   YY=            -30.4481   ZZ=            -32.0365
   XY=             -6.3616   XZ=             -1.8202   YZ=              0.6522
 Traceless Quadrupole moment (field-independent basis, Debye-Ang):
   XX=             -2.2990   YY=              1.9437   ZZ=              0.3553
   XY=             -6.3616   XZ=             -1.8202   YZ=              0.6522
 Octapole moment (field-independent basis, Debye-Ang**2):
  XXX=            -44.4293  YYY=             -4.1821  ZZZ=             -0.4154  XYY=              8.2591
  XXY=              2.4202  XXZ=             -6.9638  XZZ=              0.0004  YZZ=             -0.1159
  YYZ=             -1.3220  XYZ=              3.1040
 Hexadecapole moment (field-independent basis, Debye-Ang**3):
 XXXX=           -557.9602 YYYY=            -87.8265 ZZZZ=            -67.9183 XXXY=            -39.6787
 XXXZ=              6.1632 YYYX=             -8.3766 YYYZ=              3.1380 ZZZX=             -0.6853
 ZZZY=              0.7112 XXYY=           -104.9273 XXZZ=           -111.3025 YYZZ=            -27.0329
 XXYZ=              4.7273 YYXZ=             -1.5676 ZZXY=             -2.6345
 N-N= 1.847896612191D+02 E-N=-1.001148318430D+03  KE= 2.684904261519D+02
 No NMR shielding tensors so no spin-rotation constants.
 Leave Link  601 at Mon Nov 10 19:37:31 2025, MaxMem=    33554432 cpu:         0.0
 (Enter /opt/programs/gaussian/g09/d_pgi133/l9999.exe)
 1\1\GINC-EXADE5\SP\RM062X\6-311++G(d,p)\C3H8O2\APINTO\10-Nov-2025\0\\#
 p M062X/6-311++G(d,p)\\SP\\0,1\C,0,1.381198,0.318983,0.294625\H,0,1.74
 9234,1.271862,0.703843\H,0,1.315049,-0.386914,1.140434\C,0,-0.006208,0
 .506304,-0.337974\H,0,0.029715,0.036564,-1.329014\H,0,-0.238072,1.5647
 89,-0.492479\C,0,-1.1274,-0.13814,0.480922\H,0,-0.915639,-1.212587,0.6
 10423\H,0,-1.169068,0.301883,1.483841\O,0,2.263072,-0.187236,-0.704761
 \H,0,3.139434,-0.279652,-0.309103\O,0,-2.414914,0.074741,-0.080042\H,0
 ,-2.418775,-0.329305,-0.95798\\Version=ES64L-G09RevD.01\State=1-A\HF=-
 269.5264387\RMSD=4.058e-09\Dipole=0.7621457,-0.1529345,0.316405\Quadru
 pole=-0.9030337,0.3244823,0.5785514,1.5983828,4.859635,0.4216667\PG=C0
 1 [X(C3H8O2)]\\@


 THERE'S SMALL CHOICE IN A BOWL OF ROTTEN APPLES.
                     SHAKESPEARE
 Job cpu time:       0 days  0 hours  0 minutes 26.2 seconds.
 File lengths (MBytes):  RWF=     16 Int=      0 D2E=      0 Chk=      2 Scr=      1
 Normal termination of Gaussian 09 at Mon Nov 10 19:37:31 2025.
