 Entering Gaussian System, Link 0=g09
 Input=xaq.com
 Output=xaq.log
 Initial command:
 /opt/programs/gaussian/g09/d_pgi133/l1.exe "/scratch/users/apinto/lixo/Gau-1265281.inp" -scrdir="/scratch/users/apinto/lixo/"
 Entering Link 1 = /opt/programs/gaussian/g09/d_pgi133/l1.exe PID=   1265283.
  
 Copyright (c) 1988,1990,1992,1993,1995,1998,2003,2009,2013,
            Gaussian, Inc.  All Rights Reserved.
  
 This is part of the Gaussian(R) 09 program.  It is based on
 the Gaussian(R) 03 system (copyright 2003, Gaussian, Inc.),
 the Gaussian(R) 98 system (copyright 1998, Gaussian, Inc.),
 the Gaussian(R) 94 system (copyright 1995, Gaussian, Inc.),
 the Gaussian 92(TM) system (copyright 1992, Gaussian, Inc.),
 the Gaussian 90(TM) system (copyright 1990, Gaussian, Inc.),
 the Gaussian 88(TM) system (copyright 1988, Gaussian, Inc.),
 the Gaussian 86(TM) system (copyright 1986, Carnegie Mellon
 University), and the Gaussian 82(TM) system (copyright 1983,
 Carnegie Mellon University). Gaussian is a federally registered
 trademark of Gaussian, Inc.
  
 This software contains proprietary and confidential information,
 including trade secrets, belonging to Gaussian, Inc.
  
 This software is provided under written license and may be
 used, copied, transmitted, or stored only in accord with that
 written license.
  
 The following legend is applicable only to US Government
 contracts under FAR:
  
                    RESTRICTED RIGHTS LEGEND
  
 Use, reproduction and disclosure by the US Government is
 subject to restrictions as set forth in subparagraphs (a)
 and (c) of the Commercial Computer Software - Restricted
 Rights clause in FAR 52.227-19.
  
 Gaussian, Inc.
 340 Quinnipiac St., Bldg. 40, Wallingford CT 06492
  
  
 ---------------------------------------------------------------
 Warning -- This program may not be used in any manner that
 competes with the business of Gaussian, Inc. or will provide
 assistance to any competitor of Gaussian, Inc.  The licensee
 of this program is prohibited from giving any competitor of
 Gaussian, Inc. access to this program.  By using this program,
 the user acknowledges that Gaussian, Inc. is engaged in the
 business of creating and licensing software in the field of
 computational chemistry and represents and warrants to the
 licensee that it is not a competitor of Gaussian, Inc. and that
 it will not use this program in any manner prohibited above.
 ---------------------------------------------------------------
  

 Cite this work as:
 Gaussian 09, Revision D.01,
 M. J. Frisch, G. W. Trucks, H. B. Schlegel, G. E. Scuseria, 
 M. A. Robb, J. R. Cheeseman, G. Scalmani, V. Barone, B. Mennucci, 
 G. A. Petersson, H. Nakatsuji, M. Caricato, X. Li, H. P. Hratchian, 
 A. F. Izmaylov, J. Bloino, G. Zheng, J. L. Sonnenberg, M. Hada, 
 M. Ehara, K. Toyota, R. Fukuda, J. Hasegawa, M. Ishida, T. Nakajima, 
 Y. Honda, O. Kitao, H. Nakai, T. Vreven, J. A. Montgomery, Jr., 
 J. E. Peralta, F. Ogliaro, M. Bearpark, J. J. Heyd, E. Brothers, 
 K. N. Kudin, V. N. Staroverov, T. Keith, R. Kobayashi, J. Normand, 
 K. Raghavachari, A. Rendell, J. C. Burant, S. S. Iyengar, J. Tomasi, 
 M. Cossi, N. Rega, J. M. Millam, M. Klene, J. E. Knox, J. B. Cross, 
 V. Bakken, C. Adamo, J. Jaramillo, R. Gomperts, R. E. Stratmann, 
 O. Yazyev, A. J. Austin, R. Cammi, C. Pomelli, J. W. Ochterski, 
 R. L. Martin, K. Morokuma, V. G. Zakrzewski, G. A. Voth, 
 P. Salvador, J. J. Dannenberg, S. Dapprich, A. D. Daniels, 
 O. Farkas, J. B. Foresman, J. V. Ortiz, J. Cioslowski, 
 and D. J. Fox, Gaussian, Inc., Wallingford CT, 2013.
 
 ******************************************
 Gaussian 09:  ES64L-G09RevD.01 24-Apr-2013
                10-Nov-2025 
 ******************************************
 ----------------------
 #p M062X/6-311++G(d,p)
 ----------------------
 1/38=1/1;
 2/12=2,17=6,18=5,40=1/2;
 3/5=4,6=6,7=1111,11=2,16=1,25=1,30=1,74=-55/1,2,3;
 4//1;
 5/5=2,38=5/2;
 6/7=2,8=2,9=2,10=2,28=1/1;
 99/5=1,9=1/99;
 Leave Link    1 at Mon Nov 10 19:39:15 2025, MaxMem=           0 cpu:         0.0
 (Enter /opt/programs/gaussian/g09/d_pgi133/l101.exe)
 --
 SP
 --
 Symbolic Z-matrix:
 Charge =  0 Multiplicity = 1
 C                     1.37494   0.18984   0.28454 
 H                     1.57113   1.00457   0.99946 
 H                     1.37458  -0.75158   0.861 
 C                     0.01269   0.38564  -0.37551 
 H                     0.00619  -0.22641  -1.2879 
 H                    -0.11985   1.42682  -0.68685 
 C                    -1.15376  -0.03981   0.51742 
 H                    -1.03341  -1.09736   0.80577 
 H                    -1.16302   0.54419   1.44481 
 O                     2.35834   0.14834  -0.74359 
 H                     3.22651   0.0929   -0.32455 
 O                    -2.42      0.18884  -0.08681 
 H                    -2.44673  -0.3247   -0.90506 
 
 NAtoms=     13 NQM=       13 NQMF=       0 NMMI=      0 NMMIF=      0
                NMic=       0 NMicF=      0.
                    Isotopes and Nuclear Properties:
 (Nuclear quadrupole moments (NQMom) in fm**2, nuclear magnetic moments (NMagM)
  in nuclear magnetons)

  Atom         1           2           3           4           5           6           7           8           9          10
 IAtWgt=          12           1           1          12           1           1          12           1           1          16
 AtmWgt=  12.0000000   1.0078250   1.0078250  12.0000000   1.0078250   1.0078250  12.0000000   1.0078250   1.0078250  15.9949146
 NucSpn=           0           1           1           0           1           1           0           1           1           0
 AtZEff=   0.0000000   0.0000000   0.0000000   0.0000000   0.0000000   0.0000000   0.0000000   0.0000000   0.0000000   0.0000000
 NQMom=    0.0000000   0.0000000   0.0000000   0.0000000   0.0000000   0.0000000   0.0000000   0.0000000   0.0000000   0.0000000
 NMagM=    0.0000000   2.7928460   2.7928460   0.0000000   2.7928460   2.7928460   0.0000000   2.7928460   2.7928460   0.0000000
 AtZNuc=   6.0000000   1.0000000   1.0000000   6.0000000   1.0000000   1.0000000   6.0000000   1.0000000   1.0000000   8.0000000

  Atom        11          12          13
 IAtWgt=           1          16           1
 AtmWgt=   1.0078250  15.9949146   1.0078250
 NucSpn=           1           0           1
 AtZEff=   0.0000000   0.0000000   0.0000000
 NQMom=    0.0000000   0.0000000   0.0000000
 NMagM=    2.7928460   0.0000000   2.7928460
 AtZNuc=   1.0000000   8.0000000   1.0000000
 Leave Link  101 at Mon Nov 10 19:39:15 2025, MaxMem=    33554432 cpu:         0.0
 (Enter /opt/programs/gaussian/g09/d_pgi133/l202.exe)
                          Input orientation:                          
 ---------------------------------------------------------------------
 Center     Atomic      Atomic             Coordinates (Angstroms)
 Number     Number       Type             X           Y           Z
 ---------------------------------------------------------------------
      1          6           0        1.374944    0.189843    0.284541
      2          1           0        1.571134    1.004575    0.999460
      3          1           0        1.374580   -0.751577    0.861004
      4          6           0        0.012689    0.385642   -0.375505
      5          1           0        0.006194   -0.226414   -1.287904
      6          1           0       -0.119850    1.426821   -0.686848
      7          6           0       -1.153760   -0.039805    0.517422
      8          1           0       -1.033409   -1.097365    0.805771
      9          1           0       -1.163015    0.544189    1.444806
     10          8           0        2.358344    0.148343   -0.743594
     11          1           0        3.226510    0.092903   -0.324551
     12          8           0       -2.420000    0.188836   -0.086805
     13          1           0       -2.446734   -0.324696   -0.905062
 ---------------------------------------------------------------------
                    Distance matrix (angstroms):
                    1          2          3          4          5
     1  C    0.000000
     2  H    1.101539   0.000000
     3  H    1.103894   1.772533   0.000000
     4  C    1.526347   2.168492   2.162630   0.000000
     5  H    2.125872   3.032558   2.601169   1.098693   0.000000
     6  H    2.169820   2.425150   3.061794   1.094785   1.763616
     7  C    2.549768   2.957725   2.648994   1.529355   2.153954
     8  H    2.780063   3.352508   2.433317   2.165420   2.494555
     9  H    2.813008   2.808177   2.908474   2.172775   3.070600
    10  O    1.423327   2.095488   2.086236   2.386189   2.443220
    11  H    1.951586   2.307471   2.355490   3.227528   3.376455
    12  O    3.813069   4.215988   4.022630   2.457653   2.738885
    13  H    4.035484   4.640844   4.231271   2.614148   2.484569
                    6          7          8          9         10
     6  H    0.000000
     7  C    2.161071   0.000000
     8  H    3.071484   1.102752   0.000000
     9  H    2.532031   1.095982   1.766313   0.000000
    10  O    2.789117   3.736367   3.931451   4.164824   0.000000
    11  H    3.620597   4.462432   4.565225   4.754178   0.965600
    12  O    2.680177   1.421524   2.091325   2.012988   4.823441
    13  H    2.920585   1.943298   2.349778   2.815098   4.831005
                   11         12         13
    11  H    0.000000
    12  O    5.652327   0.000000
    13  H    5.718136   0.966423   0.000000
 Stoichiometry    C3H8O2
 Framework group  C1[X(C3H8O2)]
 Deg. of freedom    33
 Full point group                 C1      NOp   1
 Largest Abelian subgroup         C1      NOp   1
 Largest concise Abelian subgroup C1      NOp   1
                         Standard orientation:                         
 ---------------------------------------------------------------------
 Center     Atomic      Atomic             Coordinates (Angstroms)
 Number     Number       Type             X           Y           Z
 ---------------------------------------------------------------------
      1          6           0       -1.277784    0.483886    0.072477
      2          1           0       -1.419377    1.097700    0.976120
      3          1           0       -1.200329    1.179814   -0.780908
      4          6           0        0.007885   -0.330920    0.185978
      5          1           0       -0.063110   -1.147708   -0.545421
      6          1           0        0.086811   -0.792533    1.175542
      7          6           0        1.265848    0.488979   -0.104234
      8          1           0        1.197115    0.928922   -1.113089
      9          1           0        1.354592    1.322753    0.601543
     10          8           0       -2.357143   -0.424374   -0.117021
     11          1           0       -3.178130    0.083906   -0.120890
     12          8           0        2.460833   -0.265567    0.048743
     13          1           0        2.417215   -1.004994   -0.571998
 ---------------------------------------------------------------------
 Rotational constants (GHZ):     20.0200240      1.9934558      1.8955229
 Leave Link  202 at Mon Nov 10 19:39:15 2025, MaxMem=    33554432 cpu:         0.0
 (Enter /opt/programs/gaussian/g09/d_pgi133/l301.exe)
 Standard basis: 6-311++G(d,p) (5D, 7F)
 Ernie: Thresh=  0.10000D-02 Tol=  0.10000D-05 Strict=F.
 There are   171 symmetry adapted cartesian basis functions of A   symmetry.
 There are   166 symmetry adapted basis functions of A   symmetry.
   166 basis functions,   252 primitive gaussians,   171 cartesian basis functions
    21 alpha electrons       21 beta electrons
       nuclear repulsion energy       184.5635412306 Hartrees.
 IExCor= 4336 DFT=T Ex+Corr=M062X ExCW=0 ScaHFX=  0.540000
 ScaDFX=  1.000000  1.000000  1.000000  1.000000 ScalE2=  1.000000  1.000000
 IRadAn=      0 IRanWt=     -1 IRanGd=            0 ICorTp=0 IEmpDi=  4
 NAtoms=   13 NActive=   13 NUniq=   13 SFac= 1.00D+00 NAtFMM=   60 NAOKFM=F Big=F
 Integral buffers will be    131072 words long.
 Raffenetti 2 integral format.
 Two-electron integral symmetry is turned on.
 Leave Link  301 at Mon Nov 10 19:39:15 2025, MaxMem=    33554432 cpu:         0.0
 (Enter /opt/programs/gaussian/g09/d_pgi133/l302.exe)
 NPDir=0 NMtPBC=     1 NCelOv=     1 NCel=       1 NClECP=     1 NCelD=      1
         NCelK=      1 NCelE2=     1 NClLst=     1 CellRange=     0.0.
 One-electron integrals computed using PRISM.
 NBasis=   166 RedAO= T EigKep=  4.42D-05  NBF=   166
 NBsUse=   166 1.00D-06 EigRej= -1.00D+00 NBFU=   166
 Precomputing XC quadrature grid using
 IXCGrd= 4 IRadAn=           0 IRanWt=          -1 IRanGd=           0 AccXCQ= 0.00D+00.
 Generated NRdTot=       0 NPtTot=           0 NUsed=           0 NTot=          32
 NSgBfM=   171   171   171   171   171 MxSgAt=    13 MxSgA2=    13.
 Leave Link  302 at Mon Nov 10 19:39:15 2025, MaxMem=    33554432 cpu:         0.1
 (Enter /opt/programs/gaussian/g09/d_pgi133/l303.exe)
 DipDrv:  MaxL=1.
 Leave Link  303 at Mon Nov 10 19:39:16 2025, MaxMem=    33554432 cpu:         0.0
 (Enter /opt/programs/gaussian/g09/d_pgi133/l401.exe)
 ExpMin= 3.60D-02 ExpMax= 8.59D+03 ExpMxC= 1.30D+03 IAcc=3 IRadAn=         5 AccDes= 0.00D+00
 Harris functional with IExCor= 1009 and IRadAn=       5 diagonalized for initial guess.
 HarFok:  IExCor= 1009 AccDes= 0.00D+00 IRadAn=         5 IDoV= 1 UseB2=F ITyADJ=14
 ICtDFT=  3500011 ScaDFX=  1.000000  1.000000  1.000000  1.000000
 FoFCou: FMM=F IPFlag=           0 FMFlag=      100000 FMFlg1=           0
         NFxFlg=           0 DoJE=T BraDBF=F KetDBF=T FulRan=T
         wScrn=  0.000000 ICntrl=     500 IOpCl=  0 I1Cent=   200000004 NGrid=           0
         NMat0=    1 NMatS0=      1 NMatT0=    0 NMatD0=    1 NMtDS0=    0 NMtDT0=    0
 Petite list used in FoFCou.
 Harris En= -269.441937524092    
 JPrj=0 DoOrth=F DoCkMO=F.
 Leave Link  401 at Mon Nov 10 19:39:17 2025, MaxMem=    33554432 cpu:         1.5
 (Enter /opt/programs/gaussian/g09/d_pgi133/l502.exe)
 Closed shell SCF:
 Using DIIS extrapolation, IDIIS=  1040.
 Integral symmetry usage will be decided dynamically.
 IVT=      108587 IEndB=      108587 NGot=    33554432 MDV=    33491898
 LenX=    33491898 LenY=    33462216
 Requested convergence on RMS density matrix=1.00D-08 within 128 cycles.
 Requested convergence on MAX density matrix=1.00D-06.
 Requested convergence on             energy=1.00D-06.
 No special actions if energy rises.
 Fock matrices will be formed incrementally for  20 cycles.

 Cycle   1  Pass 1  IDiag  1:
 FoFJK:  IHMeth= 1 ICntrl=       0 DoSepK=F KAlg= 0 I1Cent=   0 FoldK=F
 IRaf= 970000000 NMat=   1 IRICut=       1 DoRegI=T DoRafI=F ISym2E= 0.
 FoFCou: FMM=F IPFlag=           0 FMFlag=      100000 FMFlg1=           0
         NFxFlg=           0 DoJE=F BraDBF=F KetDBF=F FulRan=T
         wScrn=  0.000000 ICntrl=       0 IOpCl=  0 I1Cent=           0 NGrid=           0
         NMat0=    1 NMatS0=      1 NMatT0=    0 NMatD0=    1 NMtDS0=    0 NMtDT0=    0
 Symmetry not used in FoFCou.
 E= -269.361824133408    
 DIIS: error= 3.11D-02 at cycle   1 NSaved=   1.
 NSaved= 1 IEnMin= 1 EnMin= -269.361824133408     IErMin= 1 ErrMin= 3.11D-02
 ErrMax= 3.11D-02  0.00D+00 EMaxC= 1.00D-01 BMatC= 2.33D-01 BMatP= 2.33D-01
 IDIUse=3 WtCom= 6.89D-01 WtEn= 3.11D-01
 Coeff-Com:  0.100D+01
 Coeff-En:   0.100D+01
 Coeff:      0.100D+01
 Gap=     0.294 Goal=   None    Shift=    0.000
 GapD=    0.294 DampG=1.000 DampE=0.500 DampFc=0.5000 IDamp=-1.
 Damping current iteration by 5.00D-01
 RMSDP=6.69D-03 MaxDP=1.93D-01              OVMax= 1.33D-01

 Cycle   2  Pass 1  IDiag  1:
 RMSU=  3.34D-03    CP:  9.87D-01
 E= -269.442909215676     Delta-E=       -0.081085082267 Rises=F Damp=T
 DIIS: error= 8.29D-03 at cycle   2 NSaved=   2.
 NSaved= 2 IEnMin= 2 EnMin= -269.442909215676     IErMin= 2 ErrMin= 8.29D-03
 ErrMax= 8.29D-03  0.00D+00 EMaxC= 1.00D-01 BMatC= 1.50D-02 BMatP= 2.33D-01
 IDIUse=3 WtCom= 9.17D-01 WtEn= 8.29D-02
 Coeff-Com: -0.421D-01 0.104D+01
 Coeff-En:   0.000D+00 0.100D+01
 Coeff:     -0.387D-01 0.104D+01
 Gap=     0.354 Goal=   None    Shift=    0.000
 RMSDP=2.07D-03 MaxDP=7.93D-02 DE=-8.11D-02 OVMax= 7.39D-02

 Cycle   3  Pass 1  IDiag  1:
 RMSU=  1.97D-03    CP:  9.57D-01  8.71D-01
 E= -269.526311941652     Delta-E=       -0.083402725976 Rises=F Damp=F
 DIIS: error= 4.46D-03 at cycle   3 NSaved=   3.
 NSaved= 3 IEnMin= 3 EnMin= -269.526311941652     IErMin= 3 ErrMin= 4.46D-03
 ErrMax= 4.46D-03  0.00D+00 EMaxC= 1.00D-01 BMatC= 3.97D-03 BMatP= 1.50D-02
 IDIUse=3 WtCom= 9.55D-01 WtEn= 4.46D-02
 Coeff-Com: -0.763D-01 0.318D+00 0.758D+00
 Coeff-En:   0.000D+00 0.000D+00 0.100D+01
 Coeff:     -0.729D-01 0.304D+00 0.769D+00
 Gap=     0.349 Goal=   None    Shift=    0.000
 RMSDP=3.73D-04 MaxDP=8.42D-03 DE=-8.34D-02 OVMax= 1.15D-02

 Cycle   4  Pass 1  IDiag  1:
 RMSU=  3.22D-04    CP:  9.58D-01  9.27D-01  1.00D+00
 E= -269.528312641204     Delta-E=       -0.002000699552 Rises=F Damp=F
 DIIS: error= 2.14D-03 at cycle   4 NSaved=   4.
 NSaved= 4 IEnMin= 4 EnMin= -269.528312641204     IErMin= 4 ErrMin= 2.14D-03
 ErrMax= 2.14D-03  0.00D+00 EMaxC= 1.00D-01 BMatC= 8.36D-04 BMatP= 3.97D-03
 IDIUse=3 WtCom= 9.79D-01 WtEn= 2.14D-02
 Coeff-Com: -0.313D-01 0.813D-01 0.379D+00 0.571D+00
 Coeff-En:   0.000D+00 0.000D+00 0.153D+00 0.847D+00
 Coeff:     -0.306D-01 0.796D-01 0.375D+00 0.576D+00
 Gap=     0.346 Goal=   None    Shift=    0.000
 RMSDP=1.84D-04 MaxDP=5.77D-03 DE=-2.00D-03 OVMax= 4.88D-03

 Cycle   5  Pass 1  IDiag  1:
 RMSU=  1.01D-04    CP:  9.55D-01  9.08D-01  1.01D+00  5.95D-01
 E= -269.528999434598     Delta-E=       -0.000686793394 Rises=F Damp=F
 DIIS: error= 1.91D-04 at cycle   5 NSaved=   5.
 NSaved= 5 IEnMin= 5 EnMin= -269.528999434598     IErMin= 5 ErrMin= 1.91D-04
 ErrMax= 1.91D-04  0.00D+00 EMaxC= 1.00D-01 BMatC= 7.02D-06 BMatP= 8.36D-04
 IDIUse=3 WtCom= 9.98D-01 WtEn= 1.91D-03
 Coeff-Com: -0.318D-02 0.417D-02 0.464D-01 0.128D+00 0.825D+00
 Coeff-En:   0.000D+00 0.000D+00 0.000D+00 0.000D+00 0.100D+01
 Coeff:     -0.317D-02 0.416D-02 0.463D-01 0.128D+00 0.825D+00
 Gap=     0.346 Goal=   None    Shift=    0.000
 RMSDP=2.99D-05 MaxDP=1.04D-03 DE=-6.87D-04 OVMax= 5.96D-04

 Cycle   6  Pass 1  IDiag  1:
 RMSU=  2.15D-05    CP:  9.56D-01  9.05D-01  1.01D+00  6.36D-01  9.15D-01
 E= -269.529005389990     Delta-E=       -0.000005955392 Rises=F Damp=F
 DIIS: error= 3.46D-05 at cycle   6 NSaved=   6.
 NSaved= 6 IEnMin= 6 EnMin= -269.529005389990     IErMin= 6 ErrMin= 3.46D-05
 ErrMax= 3.46D-05  0.00D+00 EMaxC= 1.00D-01 BMatC= 1.85D-07 BMatP= 7.02D-06
 IDIUse=1 WtCom= 1.00D+00 WtEn= 0.00D+00
 Coeff-Com:  0.550D-03-0.175D-02-0.427D-02 0.168D-02 0.982D-01 0.906D+00
 Coeff:      0.550D-03-0.175D-02-0.427D-02 0.168D-02 0.982D-01 0.906D+00
 Gap=     0.346 Goal=   None    Shift=    0.000
 RMSDP=1.17D-05 MaxDP=6.08D-04 DE=-5.96D-06 OVMax= 1.79D-04

 Cycle   7  Pass 1  IDiag  1:
 RMSU=  6.14D-06    CP:  9.56D-01  9.03D-01  1.01D+00  6.38D-01  9.60D-01
                    CP:  1.04D+00
 E= -269.529005572692     Delta-E=       -0.000000182702 Rises=F Damp=F
 DIIS: error= 1.72D-05 at cycle   7 NSaved=   7.
 NSaved= 7 IEnMin= 7 EnMin= -269.529005572692     IErMin= 7 ErrMin= 1.72D-05
 ErrMax= 1.72D-05  0.00D+00 EMaxC= 1.00D-01 BMatC= 6.11D-08 BMatP= 1.85D-07
 IDIUse=1 WtCom= 1.00D+00 WtEn= 0.00D+00
 Coeff-Com:  0.575D-03-0.120D-02-0.657D-02-0.121D-01-0.420D-01 0.379D+00
 Coeff-Com:  0.683D+00
 Coeff:      0.575D-03-0.120D-02-0.657D-02-0.121D-01-0.420D-01 0.379D+00
 Coeff:      0.683D+00
 Gap=     0.346 Goal=   None    Shift=    0.000
 RMSDP=2.37D-06 MaxDP=6.46D-05 DE=-1.83D-07 OVMax= 4.94D-05

 Cycle   8  Pass 1  IDiag  1:
 RMSU=  9.88D-07    CP:  9.56D-01  9.02D-01  1.01D+00  6.39D-01  9.61D-01
                    CP:  1.11D+00  8.81D-01
 E= -269.529005629367     Delta-E=       -0.000000056674 Rises=F Damp=F
 DIIS: error= 2.36D-06 at cycle   8 NSaved=   8.
 NSaved= 8 IEnMin= 8 EnMin= -269.529005629367     IErMin= 8 ErrMin= 2.36D-06
 ErrMax= 2.36D-06  0.00D+00 EMaxC= 1.00D-01 BMatC= 2.13D-09 BMatP= 6.11D-08
 IDIUse=1 WtCom= 1.00D+00 WtEn= 0.00D+00
 Coeff-Com:  0.144D-03-0.284D-03-0.184D-02-0.379D-02-0.182D-01 0.760D-01
 Coeff-Com:  0.213D+00 0.735D+00
 Coeff:      0.144D-03-0.284D-03-0.184D-02-0.379D-02-0.182D-01 0.760D-01
 Coeff:      0.213D+00 0.735D+00
 Gap=     0.346 Goal=   None    Shift=    0.000
 RMSDP=5.67D-07 MaxDP=1.97D-05 DE=-5.67D-08 OVMax= 1.51D-05

 Cycle   9  Pass 1  IDiag  1:
 RMSU=  3.43D-07    CP:  9.56D-01  9.02D-01  1.01D+00  6.39D-01  9.61D-01
                    CP:  1.12D+00  9.18D-01  1.03D+00
 E= -269.529005630970     Delta-E=       -0.000000001603 Rises=F Damp=F
 DIIS: error= 9.62D-07 at cycle   9 NSaved=   9.
 NSaved= 9 IEnMin= 9 EnMin= -269.529005630970     IErMin= 9 ErrMin= 9.62D-07
 ErrMax= 9.62D-07  0.00D+00 EMaxC= 1.00D-01 BMatC= 3.80D-10 BMatP= 2.13D-09
 IDIUse=1 WtCom= 1.00D+00 WtEn= 0.00D+00
 Coeff-Com: -0.588D-06 0.534D-05-0.115D-03-0.364D-03-0.343D-02-0.577D-02
 Coeff-Com:  0.199D-01 0.310D+00 0.679D+00
 Coeff:     -0.588D-06 0.534D-05-0.115D-03-0.364D-03-0.343D-02-0.577D-02
 Coeff:      0.199D-01 0.310D+00 0.679D+00
 Gap=     0.346 Goal=   None    Shift=    0.000
 RMSDP=1.45D-07 MaxDP=3.33D-06 DE=-1.60D-09 OVMax= 4.22D-06

 Cycle  10  Pass 1  IDiag  1:
 RMSU=  1.01D-07    CP:  9.56D-01  9.02D-01  1.01D+00  6.39D-01  9.61D-01
                    CP:  1.12D+00  9.22D-01  1.10D+00  9.50D-01
 E= -269.529005631253     Delta-E=       -0.000000000283 Rises=F Damp=F
 DIIS: error= 3.34D-07 at cycle  10 NSaved=  10.
 NSaved=10 IEnMin=10 EnMin= -269.529005631253     IErMin=10 ErrMin= 3.34D-07
 ErrMax= 3.34D-07  0.00D+00 EMaxC= 1.00D-01 BMatC= 2.79D-11 BMatP= 3.80D-10
 IDIUse=1 WtCom= 1.00D+00 WtEn= 0.00D+00
 Coeff-Com: -0.158D-04 0.327D-04 0.154D-03 0.276D-03 0.781D-03-0.998D-02
 Coeff-Com: -0.174D-01 0.220D-01 0.241D+00 0.763D+00
 Coeff:     -0.158D-04 0.327D-04 0.154D-03 0.276D-03 0.781D-03-0.998D-02
 Coeff:     -0.174D-01 0.220D-01 0.241D+00 0.763D+00
 Gap=     0.346 Goal=   None    Shift=    0.000
 RMSDP=7.02D-08 MaxDP=2.99D-06 DE=-2.83D-10 OVMax= 1.75D-06

 Cycle  11  Pass 1  IDiag  1:
 RMSU=  2.80D-08    CP:  9.56D-01  9.02D-01  1.01D+00  6.40D-01  9.61D-01
                    CP:  1.12D+00  9.30D-01  1.12D+00  1.00D+00  9.17D-01
 E= -269.529005631277     Delta-E=       -0.000000000024 Rises=F Damp=F
 DIIS: error= 6.00D-08 at cycle  11 NSaved=  11.
 NSaved=11 IEnMin=11 EnMin= -269.529005631277     IErMin=11 ErrMin= 6.00D-08
 ErrMax= 6.00D-08  0.00D+00 EMaxC= 1.00D-01 BMatC= 5.31D-13 BMatP= 2.79D-11
 IDIUse=1 WtCom= 1.00D+00 WtEn= 0.00D+00
 Coeff-Com: -0.350D-06 0.106D-05 0.127D-04 0.199D-04 0.132D-03-0.168D-03
 Coeff-Com: -0.193D-02-0.132D-01-0.144D-01 0.506D-01 0.979D+00
 Coeff:     -0.350D-06 0.106D-05 0.127D-04 0.199D-04 0.132D-03-0.168D-03
 Coeff:     -0.193D-02-0.132D-01-0.144D-01 0.506D-01 0.979D+00
 Gap=     0.346 Goal=   None    Shift=    0.000
 RMSDP=1.44D-08 MaxDP=4.26D-07 DE=-2.39D-11 OVMax= 5.73D-07

 Cycle  12  Pass 1  IDiag  1:
 RMSU=  8.59D-09    CP:  9.56D-01  9.02D-01  1.01D+00  6.39D-01  9.61D-01
                    CP:  1.12D+00  9.31D-01  1.12D+00  1.01D+00  9.76D-01
                    CP:  1.17D+00
 E= -269.529005631280     Delta-E=       -0.000000000004 Rises=F Damp=F
 DIIS: error= 1.89D-08 at cycle  12 NSaved=  12.
 NSaved=12 IEnMin=12 EnMin= -269.529005631280     IErMin=12 ErrMin= 1.89D-08
 ErrMax= 1.89D-08  0.00D+00 EMaxC= 1.00D-01 BMatC= 9.14D-14 BMatP= 5.31D-13
 IDIUse=1 WtCom= 1.00D+00 WtEn= 0.00D+00
 Coeff-Com:  0.889D-06-0.168D-05-0.490D-05-0.104D-04-0.771D-05 0.574D-03
 Coeff-Com:  0.466D-03-0.598D-02-0.198D-01-0.312D-01 0.320D+00 0.736D+00
 Coeff:      0.889D-06-0.168D-05-0.490D-05-0.104D-04-0.771D-05 0.574D-03
 Coeff:      0.466D-03-0.598D-02-0.198D-01-0.312D-01 0.320D+00 0.736D+00
 Gap=     0.346 Goal=   None    Shift=    0.000
 RMSDP=3.47D-09 MaxDP=1.23D-07 DE=-3.52D-12 OVMax= 1.47D-07

 SCF Done:  E(RM062X) =  -269.529005631     A.U. after   12 cycles
            NFock= 12  Conv=0.35D-08     -V/T= 2.0039
 KE= 2.684931212872D+02 PE=-1.000674190605D+03 EE= 2.780885224559D+02
 Leave Link  502 at Mon Nov 10 19:39:42 2025, MaxMem=    33554432 cpu:        24.7
 (Enter /opt/programs/gaussian/g09/d_pgi133/l601.exe)
 Copying SCF densities to generalized density rwf, IOpCl= 0 IROHF=0.

 **********************************************************************

            Population analysis using the SCF density.

 **********************************************************************

 Orbital symmetries:
       Occupied  (A) (A) (A) (A) (A) (A) (A) (A) (A) (A) (A) (A)
                 (A) (A) (A) (A) (A) (A) (A) (A) (A)
       Virtual   (A) (A) (A) (A) (A) (A) (A) (A) (A) (A) (A) (A)
                 (A) (A) (A) (A) (A) (A) (A) (A) (A) (A) (A) (A)
                 (A) (A) (A) (A) (A) (A) (A) (A) (A) (A) (A) (A)
                 (A) (A) (A) (A) (A) (A) (A) (A) (A) (A) (A) (A)
                 (A) (A) (A) (A) (A) (A) (A) (A) (A) (A) (A) (A)
                 (A) (A) (A) (A) (A) (A) (A) (A) (A) (A) (A) (A)
                 (A) (A) (A) (A) (A) (A) (A) (A) (A) (A) (A) (A)
                 (A) (A) (A) (A) (A) (A) (A) (A) (A) (A) (A) (A)
                 (A) (A) (A) (A) (A) (A) (A) (A) (A) (A) (A) (A)
                 (A) (A) (A) (A) (A) (A) (A) (A) (A) (A) (A) (A)
                 (A) (A) (A) (A) (A) (A) (A) (A) (A) (A) (A) (A)
                 (A) (A) (A) (A) (A) (A) (A) (A) (A) (A) (A) (A)
                 (A)
 The electronic state is 1-A.
 Alpha  occ. eigenvalues --  -19.62983 -19.62474 -10.59426 -10.58912 -10.53785
 Alpha  occ. eigenvalues --   -1.15143  -1.14640  -0.87959  -0.76334  -0.68943
 Alpha  occ. eigenvalues --   -0.60507  -0.58891  -0.53996  -0.51900  -0.49793
 Alpha  occ. eigenvalues --   -0.46527  -0.43794  -0.40843  -0.39553  -0.35747
 Alpha  occ. eigenvalues --   -0.35264
 Alpha virt. eigenvalues --   -0.00657   0.00278   0.01423   0.01847   0.03831
 Alpha virt. eigenvalues --    0.04530   0.05280   0.05354   0.07464   0.09527
 Alpha virt. eigenvalues --    0.10205   0.11491   0.11902   0.12697   0.13190
 Alpha virt. eigenvalues --    0.13413   0.13730   0.14837   0.15721   0.16954
 Alpha virt. eigenvalues --    0.19832   0.21246   0.21964   0.22143   0.22926
 Alpha virt. eigenvalues --    0.24084   0.24515   0.25526   0.27071   0.29251
 Alpha virt. eigenvalues --    0.30742   0.30781   0.32414   0.32916   0.33040
 Alpha virt. eigenvalues --    0.33918   0.35518   0.38942   0.40331   0.40833
 Alpha virt. eigenvalues --    0.46687   0.47092   0.47848   0.54910   0.57339
 Alpha virt. eigenvalues --    0.59403   0.61474   0.62619   0.67245   0.67741
 Alpha virt. eigenvalues --    0.69345   0.69863   0.71717   0.73067   0.75617
 Alpha virt. eigenvalues --    0.77235   0.78193   0.91808   0.94840   1.00079
 Alpha virt. eigenvalues --    1.03699   1.04981   1.12726   1.13929   1.20234
 Alpha virt. eigenvalues --    1.20513   1.23512   1.29536   1.31213   1.32249
 Alpha virt. eigenvalues --    1.36238   1.41834   1.45442   1.47498   1.54689
 Alpha virt. eigenvalues --    1.54868   1.58775   1.59374   1.61069   1.62041
 Alpha virt. eigenvalues --    1.63249   1.67288   1.68758   1.71487   1.72869
 Alpha virt. eigenvalues --    1.76207   1.79608   1.81442   1.85914   1.89635
 Alpha virt. eigenvalues --    1.93566   2.03928   2.05780   2.10003   2.11287
 Alpha virt. eigenvalues --    2.13316   2.15973   2.19461   2.29879   2.32045
 Alpha virt. eigenvalues --    2.37068   2.48875   2.49742   2.51977   2.53482
 Alpha virt. eigenvalues --    2.54309   2.58088   2.61744   2.64897   2.68030
 Alpha virt. eigenvalues --    2.72196   2.76937   2.82062   2.87505   2.91045
 Alpha virt. eigenvalues --    2.96060   3.02736   3.12354   3.16704   3.18116
 Alpha virt. eigenvalues --    3.24376   3.26117   3.30317   3.36167   3.47438
 Alpha virt. eigenvalues --    3.77637   3.81717   3.86771   3.91375   3.93410
 Alpha virt. eigenvalues --    4.05052   4.05275   4.17472   4.34454   5.16780
 Alpha virt. eigenvalues --    5.19283   5.48823   5.50490   5.73009   5.74674
 Alpha virt. eigenvalues --   23.89231  23.91990  23.97393  50.01850  50.02726
          Condensed to atoms (all electrons):
               1          2          3          4          5          6
     1  C    5.580486   0.382588   0.388952  -0.096868  -0.045886  -0.062236
     2  H    0.382588   0.640939  -0.109990  -0.019449   0.016980  -0.038990
     3  H    0.388952  -0.109990   0.705010  -0.024507  -0.025813   0.032559
     4  C   -0.096868  -0.019449  -0.024507   5.955821   0.397676   0.451527
     5  H   -0.045886   0.016980  -0.025813   0.397676   0.590432  -0.081946
     6  H   -0.062236  -0.038990   0.032559   0.451527  -0.081946   0.574593
     7  C    0.020649   0.018057  -0.049386  -0.228283   0.034375  -0.081554
     8  H   -0.050488  -0.009884   0.029776   0.103859  -0.055031   0.029220
     9  H    0.014606   0.003422  -0.016468  -0.046529   0.023316  -0.032603
    10  O    0.213316  -0.036001  -0.080063  -0.187924   0.007554   0.015351
    11  H    0.021017  -0.010441  -0.000049  -0.005370  -0.001016  -0.001821
    12  O    0.026027  -0.003180   0.005473  -0.091798  -0.031575   0.022858
    13  H    0.006532  -0.001196  -0.000149   0.001587   0.014810  -0.007195
               7          8          9         10         11         12
     1  C    0.020649  -0.050488   0.014606   0.213316   0.021017   0.026027
     2  H    0.018057  -0.009884   0.003422  -0.036001  -0.010441  -0.003180
     3  H   -0.049386   0.029776  -0.016468  -0.080063  -0.000049   0.005473
     4  C   -0.228283   0.103859  -0.046529  -0.187924  -0.005370  -0.091798
     5  H    0.034375  -0.055031   0.023316   0.007554  -0.001016  -0.031575
     6  H   -0.081554   0.029220  -0.032603   0.015351  -0.001821   0.022858
     7  C    5.725559   0.228836   0.445957   0.050792  -0.003913   0.221394
     8  H    0.228836   0.707330  -0.102629  -0.003621  -0.000488  -0.008235
     9  H    0.445957  -0.102629   0.611678  -0.002206   0.000992  -0.102655
    10  O    0.050792  -0.003621  -0.002206   8.067487   0.232361  -0.001555
    11  H   -0.003913  -0.000488   0.000992   0.232361   0.510594  -0.000131
    12  O    0.221394  -0.008235  -0.102655  -0.001555  -0.000131   7.969722
    13  H   -0.034567  -0.021470   0.021970  -0.000257  -0.000046   0.250940
              13
     1  C    0.006532
     2  H   -0.001196
     3  H   -0.000149
     4  C    0.001587
     5  H    0.014810
     6  H   -0.007195
     7  C   -0.034567
     8  H   -0.021470
     9  H    0.021970
    10  O   -0.000257
    11  H   -0.000046
    12  O    0.250940
    13  H    0.520617
 Mulliken charges:
               1
     1  C   -0.398694
     2  H    0.167146
     3  H    0.144654
     4  C   -0.209742
     5  H    0.156122
     6  H    0.180236
     7  C   -0.347915
     8  H    0.152825
     9  H    0.181150
    10  O   -0.275233
    11  H    0.258312
    12  O   -0.257285
    13  H    0.248424
 Sum of Mulliken charges =   0.00000
 Mulliken charges with hydrogens summed into heavy atoms:
               1
     1  C   -0.086893
     4  C    0.126616
     7  C   -0.013940
    10  O   -0.016922
    12  O   -0.008860
 Electronic spatial extent (au):  <R**2>=            623.4164
 Charge=              0.0000 electrons
 Dipole moment (field-independent basis, Debye):
    X=             -1.6306    Y=              1.3193    Z=             -0.8726  Tot=              2.2717
 Quadrupole moment (field-independent basis, Debye-Ang):
   XX=            -34.8766   YY=            -31.0906   ZZ=            -31.5363
   XY=             -5.9331   XZ=             -3.1584   YZ=              1.3616
 Traceless Quadrupole moment (field-independent basis, Debye-Ang):
   XX=             -2.3754   YY=              1.4106   ZZ=              0.9649
   XY=             -5.9331   XZ=             -3.1584   YZ=              1.3616
 Octapole moment (field-independent basis, Debye-Ang**2):
  XXX=            -43.2201  YYY=             -3.3669  ZZZ=             -0.5232  XYY=              6.3853
  XXY=              5.6823  XXZ=             -7.3926  XZZ=              1.8667  YZZ=             -0.4617
  YYZ=             -1.2944  XYZ=              3.8731
 Hexadecapole moment (field-independent basis, Debye-Ang**3):
 XXXX=           -572.4417 YYYY=            -95.8421 ZZZZ=            -56.4219 XXXY=            -42.1233
 XXXZ=            -14.4340 YYYX=             -7.3221 YYYZ=              3.6718 ZZZX=             -2.4271
 ZZZY=              0.7459 XXYY=           -112.0617 XXZZ=           -111.8270 YYZZ=            -23.4568
 XXYZ=              8.5511 YYXZ=             -2.7473 ZZXY=             -2.8037
 N-N= 1.845635412306D+02 E-N=-1.000674191218D+03  KE= 2.684931212872D+02
 No NMR shielding tensors so no spin-rotation constants.
 Leave Link  601 at Mon Nov 10 19:39:42 2025, MaxMem=    33554432 cpu:         0.0
 (Enter /opt/programs/gaussian/g09/d_pgi133/l9999.exe)
 1\1\GINC-EXADE5\SP\RM062X\6-311++G(d,p)\C3H8O2\APINTO\10-Nov-2025\0\\#
 p M062X/6-311++G(d,p)\\SP\\0,1\C,0,1.374944,0.189843,0.284541\H,0,1.57
 1134,1.004575,0.99946\H,0,1.37458,-0.751577,0.861004\C,0,0.012689,0.38
 5642,-0.375505\H,0,0.006194,-0.226414,-1.287904\H,0,-0.11985,1.426821,
 -0.686848\C,0,-1.15376,-0.039805,0.517422\H,0,-1.033409,-1.097365,0.80
 5771\H,0,-1.163015,0.544189,1.444806\O,0,2.358344,0.148343,-0.743594\H
 ,0,3.22651,0.092903,-0.324551\O,0,-2.42,0.188836,-0.086805\H,0,-2.4467
 34,-0.324696,-0.905062\\Version=ES64L-G09RevD.01\State=1-A\HF=-269.529
 0056\RMSD=3.470e-09\Dipole=0.6932379,-0.3969425,0.4008631\Quadrupole=-
 0.8862676,0.5232867,0.362981,1.7726104,4.8877011,0.858102\PG=C01 [X(C3
 H8O2)]\\@


 TO BEHOLD HARMS OF OUR OWN HANDS DOING,
 WHERE NONE BESIDE US WROUGHT,
 CAUSES SHARP RUING...

                                         SOPHOCLES
 Job cpu time:       0 days  0 hours  0 minutes 26.3 seconds.
 File lengths (MBytes):  RWF=     16 Int=      0 D2E=      0 Chk=      2 Scr=      1
 Normal termination of Gaussian 09 at Mon Nov 10 19:39:42 2025.
