 Entering Gaussian System, Link 0=g09
 Input=xar.com
 Output=xar.log
 Initial command:
 /opt/programs/gaussian/g09/d_pgi133/l1.exe "/scratch/users/apinto/lixo/Gau-1265488.inp" -scrdir="/scratch/users/apinto/lixo/"
 Entering Link 1 = /opt/programs/gaussian/g09/d_pgi133/l1.exe PID=   1265490.
  
 Copyright (c) 1988,1990,1992,1993,1995,1998,2003,2009,2013,
            Gaussian, Inc.  All Rights Reserved.
  
 This is part of the Gaussian(R) 09 program.  It is based on
 the Gaussian(R) 03 system (copyright 2003, Gaussian, Inc.),
 the Gaussian(R) 98 system (copyright 1998, Gaussian, Inc.),
 the Gaussian(R) 94 system (copyright 1995, Gaussian, Inc.),
 the Gaussian 92(TM) system (copyright 1992, Gaussian, Inc.),
 the Gaussian 90(TM) system (copyright 1990, Gaussian, Inc.),
 the Gaussian 88(TM) system (copyright 1988, Gaussian, Inc.),
 the Gaussian 86(TM) system (copyright 1986, Carnegie Mellon
 University), and the Gaussian 82(TM) system (copyright 1983,
 Carnegie Mellon University). Gaussian is a federally registered
 trademark of Gaussian, Inc.
  
 This software contains proprietary and confidential information,
 including trade secrets, belonging to Gaussian, Inc.
  
 This software is provided under written license and may be
 used, copied, transmitted, or stored only in accord with that
 written license.
  
 The following legend is applicable only to US Government
 contracts under FAR:
  
                    RESTRICTED RIGHTS LEGEND
  
 Use, reproduction and disclosure by the US Government is
 subject to restrictions as set forth in subparagraphs (a)
 and (c) of the Commercial Computer Software - Restricted
 Rights clause in FAR 52.227-19.
  
 Gaussian, Inc.
 340 Quinnipiac St., Bldg. 40, Wallingford CT 06492
  
  
 ---------------------------------------------------------------
 Warning -- This program may not be used in any manner that
 competes with the business of Gaussian, Inc. or will provide
 assistance to any competitor of Gaussian, Inc.  The licensee
 of this program is prohibited from giving any competitor of
 Gaussian, Inc. access to this program.  By using this program,
 the user acknowledges that Gaussian, Inc. is engaged in the
 business of creating and licensing software in the field of
 computational chemistry and represents and warrants to the
 licensee that it is not a competitor of Gaussian, Inc. and that
 it will not use this program in any manner prohibited above.
 ---------------------------------------------------------------
  

 Cite this work as:
 Gaussian 09, Revision D.01,
 M. J. Frisch, G. W. Trucks, H. B. Schlegel, G. E. Scuseria, 
 M. A. Robb, J. R. Cheeseman, G. Scalmani, V. Barone, B. Mennucci, 
 G. A. Petersson, H. Nakatsuji, M. Caricato, X. Li, H. P. Hratchian, 
 A. F. Izmaylov, J. Bloino, G. Zheng, J. L. Sonnenberg, M. Hada, 
 M. Ehara, K. Toyota, R. Fukuda, J. Hasegawa, M. Ishida, T. Nakajima, 
 Y. Honda, O. Kitao, H. Nakai, T. Vreven, J. A. Montgomery, Jr., 
 J. E. Peralta, F. Ogliaro, M. Bearpark, J. J. Heyd, E. Brothers, 
 K. N. Kudin, V. N. Staroverov, T. Keith, R. Kobayashi, J. Normand, 
 K. Raghavachari, A. Rendell, J. C. Burant, S. S. Iyengar, J. Tomasi, 
 M. Cossi, N. Rega, J. M. Millam, M. Klene, J. E. Knox, J. B. Cross, 
 V. Bakken, C. Adamo, J. Jaramillo, R. Gomperts, R. E. Stratmann, 
 O. Yazyev, A. J. Austin, R. Cammi, C. Pomelli, J. W. Ochterski, 
 R. L. Martin, K. Morokuma, V. G. Zakrzewski, G. A. Voth, 
 P. Salvador, J. J. Dannenberg, S. Dapprich, A. D. Daniels, 
 O. Farkas, J. B. Foresman, J. V. Ortiz, J. Cioslowski, 
 and D. J. Fox, Gaussian, Inc., Wallingford CT, 2013.
 
 ******************************************
 Gaussian 09:  ES64L-G09RevD.01 24-Apr-2013
                10-Nov-2025 
 ******************************************
 ----------------------
 #p M062X/6-311++G(d,p)
 ----------------------
 1/38=1/1;
 2/12=2,17=6,18=5,40=1/2;
 3/5=4,6=6,7=1111,11=2,16=1,25=1,30=1,74=-55/1,2,3;
 4//1;
 5/5=2,38=5/2;
 6/7=2,8=2,9=2,10=2,28=1/1;
 99/5=1,9=1/99;
 Leave Link    1 at Mon Nov 10 19:39:42 2025, MaxMem=           0 cpu:         0.0
 (Enter /opt/programs/gaussian/g09/d_pgi133/l101.exe)
 --
 SP
 --
 Symbolic Z-matrix:
 Charge =  0 Multiplicity = 1
 C                     1.37491   0.16528   0.27972 
 H                     1.53721   0.94164   1.04447 
 H                     1.39769  -0.80881   0.79777 
 C                     0.01578   0.36089  -0.38324 
 H                    -0.00264  -0.26927  -1.28323 
 H                    -0.09784   1.39774  -0.71636 
 C                    -1.15649  -0.02066   0.52181 
 H                    -1.05344  -1.07071   0.84284 
 H                    -1.15601   0.59159   1.43076 
 O                     2.36888   0.22015  -0.73777 
 H                     3.23388   0.15348  -0.31402 
 O                    -2.41934   0.20897  -0.08901 
 H                    -2.45495  -0.32901  -0.89101 
 
 NAtoms=     13 NQM=       13 NQMF=       0 NMMI=      0 NMMIF=      0
                NMic=       0 NMicF=      0.
                    Isotopes and Nuclear Properties:
 (Nuclear quadrupole moments (NQMom) in fm**2, nuclear magnetic moments (NMagM)
  in nuclear magnetons)

  Atom         1           2           3           4           5           6           7           8           9          10
 IAtWgt=          12           1           1          12           1           1          12           1           1          16
 AtmWgt=  12.0000000   1.0078250   1.0078250  12.0000000   1.0078250   1.0078250  12.0000000   1.0078250   1.0078250  15.9949146
 NucSpn=           0           1           1           0           1           1           0           1           1           0
 AtZEff=   0.0000000   0.0000000   0.0000000   0.0000000   0.0000000   0.0000000   0.0000000   0.0000000   0.0000000   0.0000000
 NQMom=    0.0000000   0.0000000   0.0000000   0.0000000   0.0000000   0.0000000   0.0000000   0.0000000   0.0000000   0.0000000
 NMagM=    0.0000000   2.7928460   2.7928460   0.0000000   2.7928460   2.7928460   0.0000000   2.7928460   2.7928460   0.0000000
 AtZNuc=   6.0000000   1.0000000   1.0000000   6.0000000   1.0000000   1.0000000   6.0000000   1.0000000   1.0000000   8.0000000

  Atom        11          12          13
 IAtWgt=           1          16           1
 AtmWgt=   1.0078250  15.9949146   1.0078250
 NucSpn=           1           0           1
 AtZEff=   0.0000000   0.0000000   0.0000000
 NQMom=    0.0000000   0.0000000   0.0000000
 NMagM=    2.7928460   0.0000000   2.7928460
 AtZNuc=   1.0000000   8.0000000   1.0000000
 Leave Link  101 at Mon Nov 10 19:39:42 2025, MaxMem=    33554432 cpu:         0.0
 (Enter /opt/programs/gaussian/g09/d_pgi133/l202.exe)
                          Input orientation:                          
 ---------------------------------------------------------------------
 Center     Atomic      Atomic             Coordinates (Angstroms)
 Number     Number       Type             X           Y           Z
 ---------------------------------------------------------------------
      1          6           0        1.374907    0.165284    0.279720
      2          1           0        1.537209    0.941639    1.044469
      3          1           0        1.397686   -0.808813    0.797772
      4          6           0        0.015783    0.360888   -0.383239
      5          1           0       -0.002635   -0.269270   -1.283231
      6          1           0       -0.097843    1.397742   -0.716357
      7          6           0       -1.156493   -0.020658    0.521810
      8          1           0       -1.053440   -1.070705    0.842843
      9          1           0       -1.156013    0.591591    1.430757
     10          8           0        2.368879    0.220148   -0.737774
     11          1           0        3.233878    0.153481   -0.314018
     12          8           0       -2.419342    0.208974   -0.089010
     13          1           0       -2.454951   -0.329008   -0.891007
 ---------------------------------------------------------------------
                    Distance matrix (angstroms):
                    1          2          3          4          5
     1  C    0.000000
     2  H    1.101776   0.000000
     3  H    1.103522   1.773248   0.000000
     4  C    1.524793   2.165724   2.161630   0.000000
     5  H    2.128209   3.042303   2.565654   1.098828   0.000000
     6  H    2.163357   2.445799   3.065629   1.094963   1.763332
     7  C    2.549739   2.907786   2.687224   1.529353   2.156703
     8  H    2.782381   3.286585   2.465489   2.167019   2.503334
     9  H    2.812860   2.743209   2.980466   2.171845   3.071985
    10  O    1.423476   2.094902   2.088032   2.383813   2.482163
    11  H    1.951522   2.312005   2.352379   3.225515   3.404865
    12  O    3.812374   4.180415   4.048700   2.457536   2.737764
    13  H    4.035188   4.614970   4.233793   2.615017   2.484202
                    6          7          8          9         10
     6  H    0.000000
     7  C    2.160013   0.000000
     8  H    3.072052   1.102851   0.000000
     9  H    2.525807   1.095917   1.766180   0.000000
    10  O    2.733478   3.751371   3.984585   4.155161   0.000000
    11  H    3.579166   4.472616   4.606306   4.744188   0.965524
    12  O    2.682553   1.421485   2.090841   2.012980   4.831985
    13  H    2.927136   1.943483   2.349592   2.815196   4.857406
                   11         12         13
    11  H    0.000000
    12  O    5.657968   0.000000
    13  H    5.738335   0.966381   0.000000
 Stoichiometry    C3H8O2
 Framework group  C1[X(C3H8O2)]
 Deg. of freedom    33
 Full point group                 C1      NOp   1
 Largest Abelian subgroup         C1      NOp   1
 Largest concise Abelian subgroup C1      NOp   1
                         Standard orientation:                         
 ---------------------------------------------------------------------
 Center     Atomic      Atomic             Coordinates (Angstroms)
 Number     Number       Type             X           Y           Z
 ---------------------------------------------------------------------
      1          6           0       -1.275334    0.484159    0.042988
      2          1           0       -1.380904    1.125733    0.932453
      3          1           0       -1.221543    1.152579   -0.833415
      4          6           0        0.005845   -0.336914    0.140019
      5          1           0       -0.048888   -1.120203   -0.628672
      6          1           0        0.059151   -0.843241    1.109419
      7          6           0        1.271538    0.493516   -0.077533
      8          1           0        1.227890    0.989037   -1.061827
      9          1           0        1.345463    1.286662    0.675121
     10          8           0       -2.366409   -0.421979   -0.078479
     11          1           0       -3.183107    0.093017   -0.082893
     12          8           0        2.461244   -0.272061    0.060708
     13          1           0        2.430960   -0.975834   -0.600864
 ---------------------------------------------------------------------
 Rotational constants (GHZ):     20.2687329      1.9896102      1.8882277
 Leave Link  202 at Mon Nov 10 19:39:42 2025, MaxMem=    33554432 cpu:         0.0
 (Enter /opt/programs/gaussian/g09/d_pgi133/l301.exe)
 Standard basis: 6-311++G(d,p) (5D, 7F)
 Ernie: Thresh=  0.10000D-02 Tol=  0.10000D-05 Strict=F.
 There are   171 symmetry adapted cartesian basis functions of A   symmetry.
 There are   166 symmetry adapted basis functions of A   symmetry.
   166 basis functions,   252 primitive gaussians,   171 cartesian basis functions
    21 alpha electrons       21 beta electrons
       nuclear repulsion energy       184.5363862008 Hartrees.
 IExCor= 4336 DFT=T Ex+Corr=M062X ExCW=0 ScaHFX=  0.540000
 ScaDFX=  1.000000  1.000000  1.000000  1.000000 ScalE2=  1.000000  1.000000
 IRadAn=      0 IRanWt=     -1 IRanGd=            0 ICorTp=0 IEmpDi=  4
 NAtoms=   13 NActive=   13 NUniq=   13 SFac= 1.00D+00 NAtFMM=   60 NAOKFM=F Big=F
 Integral buffers will be    131072 words long.
 Raffenetti 2 integral format.
 Two-electron integral symmetry is turned on.
 Leave Link  301 at Mon Nov 10 19:39:42 2025, MaxMem=    33554432 cpu:         0.0
 (Enter /opt/programs/gaussian/g09/d_pgi133/l302.exe)
 NPDir=0 NMtPBC=     1 NCelOv=     1 NCel=       1 NClECP=     1 NCelD=      1
         NCelK=      1 NCelE2=     1 NClLst=     1 CellRange=     0.0.
 One-electron integrals computed using PRISM.
 NBasis=   166 RedAO= T EigKep=  4.44D-05  NBF=   166
 NBsUse=   166 1.00D-06 EigRej= -1.00D+00 NBFU=   166
 Precomputing XC quadrature grid using
 IXCGrd= 4 IRadAn=           0 IRanWt=          -1 IRanGd=           0 AccXCQ= 0.00D+00.
 Generated NRdTot=       0 NPtTot=           0 NUsed=           0 NTot=          32
 NSgBfM=   171   171   171   171   171 MxSgAt=    13 MxSgA2=    13.
 Leave Link  302 at Mon Nov 10 19:39:42 2025, MaxMem=    33554432 cpu:         0.1
 (Enter /opt/programs/gaussian/g09/d_pgi133/l303.exe)
 DipDrv:  MaxL=1.
 Leave Link  303 at Mon Nov 10 19:39:42 2025, MaxMem=    33554432 cpu:         0.0
 (Enter /opt/programs/gaussian/g09/d_pgi133/l401.exe)
 ExpMin= 3.60D-02 ExpMax= 8.59D+03 ExpMxC= 1.30D+03 IAcc=3 IRadAn=         5 AccDes= 0.00D+00
 Harris functional with IExCor= 1009 and IRadAn=       5 diagonalized for initial guess.
 HarFok:  IExCor= 1009 AccDes= 0.00D+00 IRadAn=         5 IDoV= 1 UseB2=F ITyADJ=14
 ICtDFT=  3500011 ScaDFX=  1.000000  1.000000  1.000000  1.000000
 FoFCou: FMM=F IPFlag=           0 FMFlag=      100000 FMFlg1=           0
         NFxFlg=           0 DoJE=T BraDBF=F KetDBF=T FulRan=T
         wScrn=  0.000000 ICntrl=     500 IOpCl=  0 I1Cent=   200000004 NGrid=           0
         NMat0=    1 NMatS0=      1 NMatT0=    0 NMatD0=    1 NMtDS0=    0 NMtDT0=    0
 Petite list used in FoFCou.
 Harris En= -269.442385438519    
 JPrj=0 DoOrth=F DoCkMO=F.
 Leave Link  401 at Mon Nov 10 19:39:43 2025, MaxMem=    33554432 cpu:         1.5
 (Enter /opt/programs/gaussian/g09/d_pgi133/l502.exe)
 Closed shell SCF:
 Using DIIS extrapolation, IDIIS=  1040.
 Integral symmetry usage will be decided dynamically.
 IVT=      108587 IEndB=      108587 NGot=    33554432 MDV=    33491898
 LenX=    33491898 LenY=    33462216
 Requested convergence on RMS density matrix=1.00D-08 within 128 cycles.
 Requested convergence on MAX density matrix=1.00D-06.
 Requested convergence on             energy=1.00D-06.
 No special actions if energy rises.
 Fock matrices will be formed incrementally for  20 cycles.

 Cycle   1  Pass 1  IDiag  1:
 FoFJK:  IHMeth= 1 ICntrl=       0 DoSepK=F KAlg= 0 I1Cent=   0 FoldK=F
 IRaf= 970000000 NMat=   1 IRICut=       1 DoRegI=T DoRafI=F ISym2E= 0.
 FoFCou: FMM=F IPFlag=           0 FMFlag=      100000 FMFlg1=           0
         NFxFlg=           0 DoJE=F BraDBF=F KetDBF=F FulRan=T
         wScrn=  0.000000 ICntrl=       0 IOpCl=  0 I1Cent=           0 NGrid=           0
         NMat0=    1 NMatS0=      1 NMatT0=    0 NMatD0=    1 NMtDS0=    0 NMtDT0=    0
 Symmetry not used in FoFCou.
 E= -269.362064601245    
 DIIS: error= 3.09D-02 at cycle   1 NSaved=   1.
 NSaved= 1 IEnMin= 1 EnMin= -269.362064601245     IErMin= 1 ErrMin= 3.09D-02
 ErrMax= 3.09D-02  0.00D+00 EMaxC= 1.00D-01 BMatC= 2.33D-01 BMatP= 2.33D-01
 IDIUse=3 WtCom= 6.91D-01 WtEn= 3.09D-01
 Coeff-Com:  0.100D+01
 Coeff-En:   0.100D+01
 Coeff:      0.100D+01
 Gap=     0.294 Goal=   None    Shift=    0.000
 GapD=    0.294 DampG=1.000 DampE=0.500 DampFc=0.5000 IDamp=-1.
 Damping current iteration by 5.00D-01
 RMSDP=6.71D-03 MaxDP=1.84D-01              OVMax= 1.32D-01

 Cycle   2  Pass 1  IDiag  1:
 RMSU=  3.35D-03    CP:  9.86D-01
 E= -269.443224446820     Delta-E=       -0.081159845575 Rises=F Damp=T
 DIIS: error= 8.23D-03 at cycle   2 NSaved=   2.
 NSaved= 2 IEnMin= 2 EnMin= -269.443224446820     IErMin= 2 ErrMin= 8.23D-03
 ErrMax= 8.23D-03  0.00D+00 EMaxC= 1.00D-01 BMatC= 1.50D-02 BMatP= 2.33D-01
 IDIUse=3 WtCom= 9.18D-01 WtEn= 8.23D-02
 Coeff-Com: -0.420D-01 0.104D+01
 Coeff-En:   0.000D+00 0.100D+01
 Coeff:     -0.386D-01 0.104D+01
 Gap=     0.354 Goal=   None    Shift=    0.000
 RMSDP=2.12D-03 MaxDP=8.32D-02 DE=-8.12D-02 OVMax= 7.39D-02

 Cycle   3  Pass 1  IDiag  1:
 RMSU=  2.00D-03    CP:  9.53D-01  8.62D-01
 E= -269.526708055555     Delta-E=       -0.083483608735 Rises=F Damp=F
 DIIS: error= 4.62D-03 at cycle   3 NSaved=   3.
 NSaved= 3 IEnMin= 3 EnMin= -269.526708055555     IErMin= 3 ErrMin= 4.62D-03
 ErrMax= 4.62D-03  0.00D+00 EMaxC= 1.00D-01 BMatC= 3.98D-03 BMatP= 1.50D-02
 IDIUse=3 WtCom= 9.54D-01 WtEn= 4.62D-02
 Coeff-Com: -0.763D-01 0.319D+00 0.758D+00
 Coeff-En:   0.000D+00 0.000D+00 0.100D+01
 Coeff:     -0.727D-01 0.304D+00 0.769D+00
 Gap=     0.349 Goal=   None    Shift=    0.000
 RMSDP=3.71D-04 MaxDP=8.23D-03 DE=-8.35D-02 OVMax= 1.14D-02

 Cycle   4  Pass 1  IDiag  1:
 RMSU=  3.18D-04    CP:  9.54D-01  9.18D-01  1.00D+00
 E= -269.528710212424     Delta-E=       -0.002002156869 Rises=F Damp=F
 DIIS: error= 2.18D-03 at cycle   4 NSaved=   4.
 NSaved= 4 IEnMin= 4 EnMin= -269.528710212424     IErMin= 4 ErrMin= 2.18D-03
 ErrMax= 2.18D-03  0.00D+00 EMaxC= 1.00D-01 BMatC= 8.41D-04 BMatP= 3.98D-03
 IDIUse=3 WtCom= 9.78D-01 WtEn= 2.18D-02
 Coeff-Com: -0.312D-01 0.811D-01 0.380D+00 0.570D+00
 Coeff-En:   0.000D+00 0.000D+00 0.154D+00 0.846D+00
 Coeff:     -0.305D-01 0.793D-01 0.375D+00 0.576D+00
 Gap=     0.346 Goal=   None    Shift=    0.000
 RMSDP=1.83D-04 MaxDP=5.02D-03 DE=-2.00D-03 OVMax= 4.88D-03

 Cycle   5  Pass 1  IDiag  1:
 RMSU=  1.02D-04    CP:  9.51D-01  8.98D-01  1.01D+00  5.97D-01
 E= -269.529400643196     Delta-E=       -0.000690430772 Rises=F Damp=F
 DIIS: error= 1.88D-04 at cycle   5 NSaved=   5.
 NSaved= 5 IEnMin= 5 EnMin= -269.529400643196     IErMin= 5 ErrMin= 1.88D-04
 ErrMax= 1.88D-04  0.00D+00 EMaxC= 1.00D-01 BMatC= 7.03D-06 BMatP= 8.41D-04
 IDIUse=3 WtCom= 9.98D-01 WtEn= 1.88D-03
 Coeff-Com: -0.316D-02 0.413D-02 0.465D-01 0.128D+00 0.825D+00
 Coeff-En:   0.000D+00 0.000D+00 0.000D+00 0.000D+00 0.100D+01
 Coeff:     -0.315D-02 0.412D-02 0.464D-01 0.128D+00 0.825D+00
 Gap=     0.346 Goal=   None    Shift=    0.000
 RMSDP=2.95D-05 MaxDP=9.52D-04 DE=-6.90D-04 OVMax= 5.95D-04

 Cycle   6  Pass 1  IDiag  1:
 RMSU=  2.12D-05    CP:  9.52D-01  8.96D-01  1.01D+00  6.36D-01  9.16D-01
 E= -269.529406598609     Delta-E=       -0.000005955413 Rises=F Damp=F
 DIIS: error= 3.43D-05 at cycle   6 NSaved=   6.
 NSaved= 6 IEnMin= 6 EnMin= -269.529406598609     IErMin= 6 ErrMin= 3.43D-05
 ErrMax= 3.43D-05  0.00D+00 EMaxC= 1.00D-01 BMatC= 1.87D-07 BMatP= 7.03D-06
 IDIUse=1 WtCom= 1.00D+00 WtEn= 0.00D+00
 Coeff-Com:  0.543D-03-0.173D-02-0.419D-02 0.188D-02 0.997D-01 0.904D+00
 Coeff:      0.543D-03-0.173D-02-0.419D-02 0.188D-02 0.997D-01 0.904D+00
 Gap=     0.346 Goal=   None    Shift=    0.000
 RMSDP=1.14D-05 MaxDP=5.87D-04 DE=-5.96D-06 OVMax= 1.77D-04

 Cycle   7  Pass 1  IDiag  1:
 RMSU=  6.02D-06    CP:  9.52D-01  8.93D-01  1.01D+00  6.39D-01  9.59D-01
                    CP:  1.04D+00
 E= -269.529406781972     Delta-E=       -0.000000183363 Rises=F Damp=F
 DIIS: error= 1.67D-05 at cycle   7 NSaved=   7.
 NSaved= 7 IEnMin= 7 EnMin= -269.529406781972     IErMin= 7 ErrMin= 1.67D-05
 ErrMax= 1.67D-05  0.00D+00 EMaxC= 1.00D-01 BMatC= 6.20D-08 BMatP= 1.87D-07
 IDIUse=1 WtCom= 1.00D+00 WtEn= 0.00D+00
 Coeff-Com:  0.575D-03-0.120D-02-0.660D-02-0.121D-01-0.421D-01 0.379D+00
 Coeff-Com:  0.682D+00
 Coeff:      0.575D-03-0.120D-02-0.660D-02-0.121D-01-0.421D-01 0.379D+00
 Coeff:      0.682D+00
 Gap=     0.346 Goal=   None    Shift=    0.000
 RMSDP=2.39D-06 MaxDP=6.42D-05 DE=-1.83D-07 OVMax= 4.95D-05

 Cycle   8  Pass 1  IDiag  1:
 RMSU=  1.00D-06    CP:  9.52D-01  8.93D-01  1.01D+00  6.40D-01  9.61D-01
                    CP:  1.11D+00  8.83D-01
 E= -269.529406839510     Delta-E=       -0.000000057539 Rises=F Damp=F
 DIIS: error= 2.41D-06 at cycle   8 NSaved=   8.
 NSaved= 8 IEnMin= 8 EnMin= -269.529406839510     IErMin= 8 ErrMin= 2.41D-06
 ErrMax= 2.41D-06  0.00D+00 EMaxC= 1.00D-01 BMatC= 2.07D-09 BMatP= 6.20D-08
 IDIUse=1 WtCom= 1.00D+00 WtEn= 0.00D+00
 Coeff-Com:  0.143D-03-0.281D-03-0.182D-02-0.375D-02-0.180D-01 0.753D-01
 Coeff-Com:  0.209D+00 0.739D+00
 Coeff:      0.143D-03-0.281D-03-0.182D-02-0.375D-02-0.180D-01 0.753D-01
 Coeff:      0.209D+00 0.739D+00
 Gap=     0.346 Goal=   None    Shift=    0.000
 RMSDP=5.73D-07 MaxDP=1.95D-05 DE=-5.75D-08 OVMax= 1.50D-05

 Cycle   9  Pass 1  IDiag  1:
 RMSU=  3.42D-07    CP:  9.52D-01  8.93D-01  1.01D+00  6.40D-01  9.61D-01
                    CP:  1.12D+00  9.20D-01  1.03D+00
 E= -269.529406841060     Delta-E=       -0.000000001550 Rises=F Damp=F
 DIIS: error= 1.03D-06 at cycle   9 NSaved=   9.
 NSaved= 9 IEnMin= 9 EnMin= -269.529406841060     IErMin= 9 ErrMin= 1.03D-06
 ErrMax= 1.03D-06  0.00D+00 EMaxC= 1.00D-01 BMatC= 3.87D-10 BMatP= 2.07D-09
 IDIUse=1 WtCom= 1.00D+00 WtEn= 0.00D+00
 Coeff-Com: -0.948D-06 0.603D-05-0.111D-03-0.358D-03-0.341D-02-0.595D-02
 Coeff-Com:  0.189D-01 0.316D+00 0.675D+00
 Coeff:     -0.948D-06 0.603D-05-0.111D-03-0.358D-03-0.341D-02-0.595D-02
 Coeff:      0.189D-01 0.316D+00 0.675D+00
 Gap=     0.346 Goal=   None    Shift=    0.000
 RMSDP=1.45D-07 MaxDP=3.36D-06 DE=-1.55D-09 OVMax= 4.22D-06

 Cycle  10  Pass 1  IDiag  1:
 RMSU=  9.94D-08    CP:  9.52D-01  8.93D-01  1.01D+00  6.40D-01  9.61D-01
                    CP:  1.12D+00  9.25D-01  1.10D+00  9.33D-01
 E= -269.529406841346     Delta-E=       -0.000000000286 Rises=F Damp=F
 DIIS: error= 3.31D-07 at cycle  10 NSaved=  10.
 NSaved=10 IEnMin=10 EnMin= -269.529406841346     IErMin=10 ErrMin= 3.31D-07
 ErrMax= 3.31D-07  0.00D+00 EMaxC= 1.00D-01 BMatC= 2.70D-11 BMatP= 3.87D-10
 IDIUse=1 WtCom= 1.00D+00 WtEn= 0.00D+00
 Coeff-Com: -0.156D-04 0.324D-04 0.153D-03 0.275D-03 0.782D-03-0.986D-02
 Coeff-Com: -0.174D-01 0.215D-01 0.235D+00 0.769D+00
 Coeff:     -0.156D-04 0.324D-04 0.153D-03 0.275D-03 0.782D-03-0.986D-02
 Coeff:     -0.174D-01 0.215D-01 0.235D+00 0.769D+00
 Gap=     0.346 Goal=   None    Shift=    0.000
 RMSDP=6.88D-08 MaxDP=2.91D-06 DE=-2.86D-10 OVMax= 1.72D-06

 Cycle  11  Pass 1  IDiag  1:
 RMSU=  2.82D-08    CP:  9.52D-01  8.93D-01  1.01D+00  6.40D-01  9.61D-01
                    CP:  1.12D+00  9.33D-01  1.12D+00  9.84D-01  9.27D-01
 E= -269.529406841373     Delta-E=       -0.000000000027 Rises=F Damp=F
 DIIS: error= 5.99D-08 at cycle  11 NSaved=  11.
 NSaved=11 IEnMin=11 EnMin= -269.529406841373     IErMin=11 ErrMin= 5.99D-08
 ErrMax= 5.99D-08  0.00D+00 EMaxC= 1.00D-01 BMatC= 5.20D-13 BMatP= 2.70D-11
 IDIUse=1 WtCom= 1.00D+00 WtEn= 0.00D+00
 Coeff-Com: -0.228D-06 0.816D-06 0.116D-04 0.178D-04 0.126D-03-0.998D-04
 Coeff-Com: -0.177D-02-0.135D-01-0.155D-01 0.454D-01 0.985D+00
 Coeff:     -0.228D-06 0.816D-06 0.116D-04 0.178D-04 0.126D-03-0.998D-04
 Coeff:     -0.177D-02-0.135D-01-0.155D-01 0.454D-01 0.985D+00
 Gap=     0.346 Goal=   None    Shift=    0.000
 RMSDP=1.40D-08 MaxDP=4.24D-07 DE=-2.71D-11 OVMax= 5.61D-07

 Cycle  12  Pass 1  IDiag  1:
 RMSU=  8.15D-09    CP:  9.52D-01  8.93D-01  1.01D+00  6.40D-01  9.61D-01
                    CP:  1.12D+00  9.33D-01  1.13D+00  9.94D-01  9.84D-01
                    CP:  1.18D+00
 E= -269.529406841374     Delta-E=       -0.000000000001 Rises=F Damp=F
 DIIS: error= 2.07D-08 at cycle  12 NSaved=  12.
 NSaved=12 IEnMin=12 EnMin= -269.529406841374     IErMin=12 ErrMin= 2.07D-08
 ErrMax= 2.07D-08  0.00D+00 EMaxC= 1.00D-01 BMatC= 9.60D-14 BMatP= 5.20D-13
 IDIUse=1 WtCom= 1.00D+00 WtEn= 0.00D+00
 Coeff-Com:  0.914D-06-0.173D-05-0.506D-05-0.107D-04-0.764D-05 0.586D-03
 Coeff-Com:  0.484D-03-0.625D-02-0.201D-01-0.322D-01 0.339D+00 0.719D+00
 Coeff:      0.914D-06-0.173D-05-0.506D-05-0.107D-04-0.764D-05 0.586D-03
 Coeff:      0.484D-03-0.625D-02-0.201D-01-0.322D-01 0.339D+00 0.719D+00
 Gap=     0.346 Goal=   None    Shift=    0.000
 RMSDP=3.32D-09 MaxDP=1.12D-07 DE=-5.68D-13 OVMax= 1.40D-07

 SCF Done:  E(RM062X) =  -269.529406841     A.U. after   12 cycles
            NFock= 12  Conv=0.33D-08     -V/T= 2.0039
 KE= 2.684929489032D+02 PE=-1.000617693064D+03 EE= 2.780589511187D+02
 Leave Link  502 at Mon Nov 10 19:40:08 2025, MaxMem=    33554432 cpu:        24.5
 (Enter /opt/programs/gaussian/g09/d_pgi133/l601.exe)
 Copying SCF densities to generalized density rwf, IOpCl= 0 IROHF=0.

 **********************************************************************

            Population analysis using the SCF density.

 **********************************************************************

 Orbital symmetries:
       Occupied  (A) (A) (A) (A) (A) (A) (A) (A) (A) (A) (A) (A)
                 (A) (A) (A) (A) (A) (A) (A) (A) (A)
       Virtual   (A) (A) (A) (A) (A) (A) (A) (A) (A) (A) (A) (A)
                 (A) (A) (A) (A) (A) (A) (A) (A) (A) (A) (A) (A)
                 (A) (A) (A) (A) (A) (A) (A) (A) (A) (A) (A) (A)
                 (A) (A) (A) (A) (A) (A) (A) (A) (A) (A) (A) (A)
                 (A) (A) (A) (A) (A) (A) (A) (A) (A) (A) (A) (A)
                 (A) (A) (A) (A) (A) (A) (A) (A) (A) (A) (A) (A)
                 (A) (A) (A) (A) (A) (A) (A) (A) (A) (A) (A) (A)
                 (A) (A) (A) (A) (A) (A) (A) (A) (A) (A) (A) (A)
                 (A) (A) (A) (A) (A) (A) (A) (A) (A) (A) (A) (A)
                 (A) (A) (A) (A) (A) (A) (A) (A) (A) (A) (A) (A)
                 (A) (A) (A) (A) (A) (A) (A) (A) (A) (A) (A) (A)
                 (A) (A) (A) (A) (A) (A) (A) (A) (A) (A) (A) (A)
                 (A)
 The electronic state is 1-A.
 Alpha  occ. eigenvalues --  -19.62978 -19.62486 -10.59421 -10.58928 -10.53787
 Alpha  occ. eigenvalues --   -1.15133  -1.14651  -0.87984  -0.76350  -0.68931
 Alpha  occ. eigenvalues --   -0.60555  -0.58718  -0.54322  -0.51812  -0.49721
 Alpha  occ. eigenvalues --   -0.46569  -0.43748  -0.40849  -0.39558  -0.35789
 Alpha  occ. eigenvalues --   -0.35264
 Alpha virt. eigenvalues --   -0.00665   0.00251   0.01417   0.01884   0.03742
 Alpha virt. eigenvalues --    0.04540   0.05345   0.05413   0.07277   0.09506
 Alpha virt. eigenvalues --    0.10265   0.11527   0.12058   0.12753   0.13171
 Alpha virt. eigenvalues --    0.13338   0.13687   0.14848   0.15573   0.17014
 Alpha virt. eigenvalues --    0.19883   0.21314   0.22034   0.22274   0.22982
 Alpha virt. eigenvalues --    0.24009   0.24399   0.25577   0.26961   0.29245
 Alpha virt. eigenvalues --    0.30813   0.30882   0.32310   0.32926   0.33294
 Alpha virt. eigenvalues --    0.34043   0.35314   0.39145   0.40391   0.40865
 Alpha virt. eigenvalues --    0.46480   0.46946   0.47831   0.54882   0.57328
 Alpha virt. eigenvalues --    0.59281   0.61486   0.63055   0.67389   0.67803
 Alpha virt. eigenvalues --    0.69276   0.69850   0.71635   0.73141   0.75829
 Alpha virt. eigenvalues --    0.77963   0.78193   0.91973   0.95440   1.00468
 Alpha virt. eigenvalues --    1.03487   1.04527   1.12937   1.14141   1.20181
 Alpha virt. eigenvalues --    1.20385   1.23666   1.29082   1.31228   1.31725
 Alpha virt. eigenvalues --    1.36014   1.41605   1.45491   1.47915   1.54613
 Alpha virt. eigenvalues --    1.55079   1.58752   1.59356   1.60971   1.62220
 Alpha virt. eigenvalues --    1.63090   1.67816   1.68599   1.71380   1.73299
 Alpha virt. eigenvalues --    1.75709   1.79380   1.81394   1.85073   1.90160
 Alpha virt. eigenvalues --    1.93705   2.03977   2.05310   2.10148   2.11894
 Alpha virt. eigenvalues --    2.13476   2.15972   2.19758   2.29781   2.33261
 Alpha virt. eigenvalues --    2.37254   2.48884   2.50115   2.51468   2.53110
 Alpha virt. eigenvalues --    2.54459   2.58155   2.62031   2.65246   2.66537
 Alpha virt. eigenvalues --    2.72431   2.77902   2.80890   2.88436   2.92146
 Alpha virt. eigenvalues --    2.96047   3.02894   3.12470   3.16625   3.18282
 Alpha virt. eigenvalues --    3.25062   3.26145   3.30871   3.36081   3.47656
 Alpha virt. eigenvalues --    3.77881   3.82475   3.87112   3.91536   3.93418
 Alpha virt. eigenvalues --    4.04397   4.05072   4.17204   4.34349   5.16774
 Alpha virt. eigenvalues --    5.19317   5.49016   5.50440   5.73034   5.74726
 Alpha virt. eigenvalues --   23.89255  23.92051  23.97436  50.01968  50.02768
          Condensed to atoms (all electrons):
               1          2          3          4          5          6
     1  C    5.603829   0.387823   0.380188  -0.105961  -0.038304  -0.062655
     2  H    0.387823   0.649185  -0.113533  -0.026769   0.020075  -0.039985
     3  H    0.380188  -0.113533   0.704502  -0.015282  -0.030710   0.031990
     4  C   -0.105961  -0.026769  -0.015282   5.962569   0.388438   0.456928
     5  H   -0.038304   0.020075  -0.030710   0.388438   0.600338  -0.084656
     6  H   -0.062655  -0.039985   0.031990   0.456928  -0.084656   0.570812
     7  C    0.002731   0.015193  -0.044171  -0.219550   0.031428  -0.078432
     8  H   -0.045609  -0.012791   0.029533   0.100665  -0.055308   0.029548
     9  H    0.010641   0.007549  -0.016835  -0.046180   0.024550  -0.033889
    10  O    0.212874  -0.038225  -0.075913  -0.189414   0.009174   0.013980
    11  H    0.023693  -0.009893  -0.000833  -0.005829  -0.001162  -0.001428
    12  O    0.027168  -0.003279   0.004802  -0.095257  -0.031424   0.022457
    13  H    0.006719  -0.001110  -0.000258   0.001095   0.014730  -0.006731
               7          8          9         10         11         12
     1  C    0.002731  -0.045609   0.010641   0.212874   0.023693   0.027168
     2  H    0.015193  -0.012791   0.007549  -0.038225  -0.009893  -0.003279
     3  H   -0.044171   0.029533  -0.016835  -0.075913  -0.000833   0.004802
     4  C   -0.219550   0.100665  -0.046180  -0.189414  -0.005829  -0.095257
     5  H    0.031428  -0.055308   0.024550   0.009174  -0.001162  -0.031424
     6  H   -0.078432   0.029548  -0.033889   0.013980  -0.001428   0.022457
     7  C    5.719178   0.231998   0.445007   0.052933  -0.004769   0.229393
     8  H    0.231998   0.710629  -0.104605  -0.003162  -0.000285  -0.009886
     9  H    0.445007  -0.104605   0.615689  -0.002471   0.000804  -0.102231
    10  O    0.052933  -0.003162  -0.002471   8.065976   0.228935  -0.001475
    11  H   -0.004769  -0.000285   0.000804   0.228935   0.513136  -0.000121
    12  O    0.229393  -0.009886  -0.102231  -0.001475  -0.000121   7.964986
    13  H   -0.035311  -0.021298   0.021827  -0.000248  -0.000052   0.251840
              13
     1  C    0.006719
     2  H   -0.001110
     3  H   -0.000258
     4  C    0.001095
     5  H    0.014730
     6  H   -0.006731
     7  C   -0.035311
     8  H   -0.021298
     9  H    0.021827
    10  O   -0.000248
    11  H   -0.000052
    12  O    0.251840
    13  H    0.520333
 Mulliken charges:
               1
     1  C   -0.403138
     2  H    0.165760
     3  H    0.146519
     4  C   -0.205453
     5  H    0.152831
     6  H    0.182060
     7  C   -0.345629
     8  H    0.150571
     9  H    0.180145
    10  O   -0.272964
    11  H    0.257806
    12  O   -0.256973
    13  H    0.248464
 Sum of Mulliken charges =   0.00000
 Mulliken charges with hydrogens summed into heavy atoms:
               1
     1  C   -0.090859
     4  C    0.129438
     7  C   -0.014913
    10  O   -0.015158
    12  O   -0.008509
 Electronic spatial extent (au):  <R**2>=            624.5508
 Charge=              0.0000 electrons
 Dipole moment (field-independent basis, Debye):
    X=             -1.5837    Y=              1.3949    Z=             -0.9957  Tot=              2.3335
 Quadrupole moment (field-independent basis, Debye-Ang):
   XX=            -34.8319   YY=            -31.2399   ZZ=            -31.4331
   XY=             -5.8357   XZ=             -3.2439   YZ=              1.4519
 Traceless Quadrupole moment (field-independent basis, Debye-Ang):
   XX=             -2.3303   YY=              1.2618   ZZ=              1.0685
   XY=             -5.8357   XZ=             -3.2439   YZ=              1.4519
 Octapole moment (field-independent basis, Debye-Ang**2):
  XXX=            -42.5445  YYY=             -3.1903  ZZZ=             -0.5761  XYY=              5.9894
  XXY=              6.1618  XXZ=             -7.9288  XZZ=              2.1289  YZZ=             -0.4847
  YYZ=             -1.2271  XYZ=              3.8999
 Hexadecapole moment (field-independent basis, Debye-Ang**3):
 XXXX=           -573.4514 YYYY=            -96.7918 ZZZZ=            -55.3266 XXXY=            -42.3365
 XXXZ=            -17.2647 YYYX=             -6.9901 YYYZ=              3.4488 ZZZX=             -2.5058
 ZZZY=              0.9213 XXYY=           -113.2397 XXZZ=           -111.4391 YYZZ=            -23.0797
 XXYZ=              9.0602 YYXZ=             -2.9576 ZZXY=             -2.8032
 N-N= 1.845363862008D+02 E-N=-1.000617693673D+03  KE= 2.684929489032D+02
 No NMR shielding tensors so no spin-rotation constants.
 Leave Link  601 at Mon Nov 10 19:40:08 2025, MaxMem=    33554432 cpu:         0.0
 (Enter /opt/programs/gaussian/g09/d_pgi133/l9999.exe)
 1\1\GINC-EXADE5\SP\RM062X\6-311++G(d,p)\C3H8O2\APINTO\10-Nov-2025\0\\#
 p M062X/6-311++G(d,p)\\SP\\0,1\C,0,1.374907,0.165284,0.27972\H,0,1.537
 209,0.941639,1.044469\H,0,1.397686,-0.808813,0.797772\C,0,0.015783,0.3
 60888,-0.383239\H,0,-0.002635,-0.26927,-1.283231\H,0,-0.097843,1.39774
 2,-0.716357\C,0,-1.156493,-0.020658,0.52181\H,0,-1.05344,-1.070705,0.8
 42843\H,0,-1.156013,0.591591,1.430757\O,0,2.368879,0.220148,-0.737774\
 H,0,3.233878,0.153481,-0.314018\O,0,-2.419342,0.208974,-0.08901\H,0,-2
 .454951,-0.329008,-0.891007\\Version=ES64L-G09RevD.01\State=1-A\HF=-26
 9.5294068\RMSD=3.324e-09\Dipole=0.6794198,-0.4592235,0.4127763\Quadrup
 ole=-0.8697608,0.5382282,0.3315326,1.7223829,4.8588142,0.9536494\PG=C0
 1 [X(C3H8O2)]\\@


 NO SCIENCE HAS EVER MADE MORE RAPID PROGRESS IN A
 SHORTER TIME THAN CHEMISTRY.
   -- MARTIN HEINRICH KLOPROTH, 1791
 (FIRST PROFESSOR OF CHEMISTRY AT THE UNIVERSITY OF BERLIN)
 Job cpu time:       0 days  0 hours  0 minutes 26.2 seconds.
 File lengths (MBytes):  RWF=     16 Int=      0 D2E=      0 Chk=      2 Scr=      1
 Normal termination of Gaussian 09 at Mon Nov 10 19:40:08 2025.
