 Entering Gaussian System, Link 0=g09
 Input=xat.com
 Output=xat.log
 Initial command:
 /opt/programs/gaussian/g09/d_pgi133/l1.exe "/scratch/users/apinto/lixo/Gau-1265924.inp" -scrdir="/scratch/users/apinto/lixo/"
 Entering Link 1 = /opt/programs/gaussian/g09/d_pgi133/l1.exe PID=   1265926.
  
 Copyright (c) 1988,1990,1992,1993,1995,1998,2003,2009,2013,
            Gaussian, Inc.  All Rights Reserved.
  
 This is part of the Gaussian(R) 09 program.  It is based on
 the Gaussian(R) 03 system (copyright 2003, Gaussian, Inc.),
 the Gaussian(R) 98 system (copyright 1998, Gaussian, Inc.),
 the Gaussian(R) 94 system (copyright 1995, Gaussian, Inc.),
 the Gaussian 92(TM) system (copyright 1992, Gaussian, Inc.),
 the Gaussian 90(TM) system (copyright 1990, Gaussian, Inc.),
 the Gaussian 88(TM) system (copyright 1988, Gaussian, Inc.),
 the Gaussian 86(TM) system (copyright 1986, Carnegie Mellon
 University), and the Gaussian 82(TM) system (copyright 1983,
 Carnegie Mellon University). Gaussian is a federally registered
 trademark of Gaussian, Inc.
  
 This software contains proprietary and confidential information,
 including trade secrets, belonging to Gaussian, Inc.
  
 This software is provided under written license and may be
 used, copied, transmitted, or stored only in accord with that
 written license.
  
 The following legend is applicable only to US Government
 contracts under FAR:
  
                    RESTRICTED RIGHTS LEGEND
  
 Use, reproduction and disclosure by the US Government is
 subject to restrictions as set forth in subparagraphs (a)
 and (c) of the Commercial Computer Software - Restricted
 Rights clause in FAR 52.227-19.
  
 Gaussian, Inc.
 340 Quinnipiac St., Bldg. 40, Wallingford CT 06492
  
  
 ---------------------------------------------------------------
 Warning -- This program may not be used in any manner that
 competes with the business of Gaussian, Inc. or will provide
 assistance to any competitor of Gaussian, Inc.  The licensee
 of this program is prohibited from giving any competitor of
 Gaussian, Inc. access to this program.  By using this program,
 the user acknowledges that Gaussian, Inc. is engaged in the
 business of creating and licensing software in the field of
 computational chemistry and represents and warrants to the
 licensee that it is not a competitor of Gaussian, Inc. and that
 it will not use this program in any manner prohibited above.
 ---------------------------------------------------------------
  

 Cite this work as:
 Gaussian 09, Revision D.01,
 M. J. Frisch, G. W. Trucks, H. B. Schlegel, G. E. Scuseria, 
 M. A. Robb, J. R. Cheeseman, G. Scalmani, V. Barone, B. Mennucci, 
 G. A. Petersson, H. Nakatsuji, M. Caricato, X. Li, H. P. Hratchian, 
 A. F. Izmaylov, J. Bloino, G. Zheng, J. L. Sonnenberg, M. Hada, 
 M. Ehara, K. Toyota, R. Fukuda, J. Hasegawa, M. Ishida, T. Nakajima, 
 Y. Honda, O. Kitao, H. Nakai, T. Vreven, J. A. Montgomery, Jr., 
 J. E. Peralta, F. Ogliaro, M. Bearpark, J. J. Heyd, E. Brothers, 
 K. N. Kudin, V. N. Staroverov, T. Keith, R. Kobayashi, J. Normand, 
 K. Raghavachari, A. Rendell, J. C. Burant, S. S. Iyengar, J. Tomasi, 
 M. Cossi, N. Rega, J. M. Millam, M. Klene, J. E. Knox, J. B. Cross, 
 V. Bakken, C. Adamo, J. Jaramillo, R. Gomperts, R. E. Stratmann, 
 O. Yazyev, A. J. Austin, R. Cammi, C. Pomelli, J. W. Ochterski, 
 R. L. Martin, K. Morokuma, V. G. Zakrzewski, G. A. Voth, 
 P. Salvador, J. J. Dannenberg, S. Dapprich, A. D. Daniels, 
 O. Farkas, J. B. Foresman, J. V. Ortiz, J. Cioslowski, 
 and D. J. Fox, Gaussian, Inc., Wallingford CT, 2013.
 
 ******************************************
 Gaussian 09:  ES64L-G09RevD.01 24-Apr-2013
                10-Nov-2025 
 ******************************************
 ----------------------
 #p M062X/6-311++G(d,p)
 ----------------------
 1/38=1/1;
 2/12=2,17=6,18=5,40=1/2;
 3/5=4,6=6,7=1111,11=2,16=1,25=1,30=1,74=-55/1,2,3;
 4//1;
 5/5=2,38=5/2;
 6/7=2,8=2,9=2,10=2,28=1/1;
 99/5=1,9=1/99;
 Leave Link    1 at Mon Nov 10 19:40:34 2025, MaxMem=           0 cpu:         0.0
 (Enter /opt/programs/gaussian/g09/d_pgi133/l101.exe)
 --
 SP
 --
 Symbolic Z-matrix:
 Charge =  0 Multiplicity = 1
 C                     1.3749    0.11822   0.26717 
 H                     1.46938   0.80691   1.12296 
 H                     1.45035  -0.90704   0.66703 
 C                     0.02038   0.313    -0.40234 
 H                    -0.02519  -0.34735  -1.27913 
 H                    -0.058     1.34103  -0.7719 
 C                    -1.15748   0.01743   0.52712 
 H                    -1.08511  -1.01341   0.91291 
 H                    -1.13301   0.68484   1.39565 
 O                     2.38188   0.36487  -0.70749 
 H                     3.24184   0.25958  -0.28143 
 O                    -2.41659   0.24637  -0.09222 
 H                    -2.47572  -0.34315  -0.85559 
 
 NAtoms=     13 NQM=       13 NQMF=       0 NMMI=      0 NMMIF=      0
                NMic=       0 NMicF=      0.
                    Isotopes and Nuclear Properties:
 (Nuclear quadrupole moments (NQMom) in fm**2, nuclear magnetic moments (NMagM)
  in nuclear magnetons)

  Atom         1           2           3           4           5           6           7           8           9          10
 IAtWgt=          12           1           1          12           1           1          12           1           1          16
 AtmWgt=  12.0000000   1.0078250   1.0078250  12.0000000   1.0078250   1.0078250  12.0000000   1.0078250   1.0078250  15.9949146
 NucSpn=           0           1           1           0           1           1           0           1           1           0
 AtZEff=   0.0000000   0.0000000   0.0000000   0.0000000   0.0000000   0.0000000   0.0000000   0.0000000   0.0000000   0.0000000
 NQMom=    0.0000000   0.0000000   0.0000000   0.0000000   0.0000000   0.0000000   0.0000000   0.0000000   0.0000000   0.0000000
 NMagM=    0.0000000   2.7928460   2.7928460   0.0000000   2.7928460   2.7928460   0.0000000   2.7928460   2.7928460   0.0000000
 AtZNuc=   6.0000000   1.0000000   1.0000000   6.0000000   1.0000000   1.0000000   6.0000000   1.0000000   1.0000000   8.0000000

  Atom        11          12          13
 IAtWgt=           1          16           1
 AtmWgt=   1.0078250  15.9949146   1.0078250
 NucSpn=           1           0           1
 AtZEff=   0.0000000   0.0000000   0.0000000
 NQMom=    0.0000000   0.0000000   0.0000000
 NMagM=    2.7928460   0.0000000   2.7928460
 AtZNuc=   1.0000000   8.0000000   1.0000000
 Leave Link  101 at Mon Nov 10 19:40:34 2025, MaxMem=    33554432 cpu:         0.0
 (Enter /opt/programs/gaussian/g09/d_pgi133/l202.exe)
                          Input orientation:                          
 ---------------------------------------------------------------------
 Center     Atomic      Atomic             Coordinates (Angstroms)
 Number     Number       Type             X           Y           Z
 ---------------------------------------------------------------------
      1          6           0        1.374900    0.118219    0.267167
      2          1           0        1.469378    0.806909    1.122958
      3          1           0        1.450349   -0.907036    0.667026
      4          6           0        0.020377    0.312997   -0.402337
      5          1           0       -0.025191   -0.347351   -1.279133
      6          1           0       -0.057998    1.341025   -0.771899
      7          6           0       -1.157482    0.017431    0.527121
      8          1           0       -1.085109   -1.013411    0.912910
      9          1           0       -1.133006    0.684844    1.395648
     10          8           0        2.381879    0.364872   -0.707488
     11          1           0        3.241835    0.259576   -0.281431
     12          8           0       -2.416591    0.246372   -0.092216
     13          1           0       -2.475717   -0.343154   -0.855593
 ---------------------------------------------------------------------
                    Distance matrix (angstroms):
                    1          2          3          4          5
     1  C    0.000000
     2  H    1.102542   0.000000
     3  H    1.103054   1.773653   0.000000
     4  C    1.523452   2.161036   2.162600   0.000000
     5  H    2.137301   3.055502   2.505594   1.098593   0.000000
     6  H    2.151304   2.491714   3.065843   1.095244   1.763229
     7  C    2.547684   2.806901   2.770378   1.529249   2.162800
     8  H    2.783741   3.143738   2.549573   2.170560   2.524305
     9  H    2.807869   2.619477   3.120688   2.168251   3.073619
    10  O    1.422954   2.092507   2.091599   2.381701   2.574495
    11  H    1.950997   2.326690   2.338798   3.224169   3.469471
    12  O    3.810641   4.109940   4.106096   2.457525   2.734972
    13  H    4.037413   4.560820   4.248567   2.620393   2.486862
                    6          7          8          9         10
     6  H    0.000000
     7  C    2.155973   0.000000
     8  H    3.071955   1.103044   0.000000
     9  H    2.506886   1.095618   1.766182   0.000000
    10  O    2.628692   3.764578   4.067599   4.108525   0.000000
    11  H    3.506991   4.479551   4.665768   4.704538   0.965472
    12  O    2.687600   1.421741   2.090497   2.013352   4.839206
    13  H    2.947682   1.944136   2.347475   2.815624   4.911158
                   11         12         13
    11  H    0.000000
    12  O    5.661604   0.000000
    13  H    5.777832   0.966324   0.000000
 Stoichiometry    C3H8O2
 Framework group  C1[X(C3H8O2)]
 Deg. of freedom    33
 Full point group                 C1      NOp   1
 Largest Abelian subgroup         C1      NOp   1
 Largest concise Abelian subgroup C1      NOp   1
                         Standard orientation:                         
 ---------------------------------------------------------------------
 Center     Atomic      Atomic             Coordinates (Angstroms)
 Number     Number       Type             X           Y           Z
 ---------------------------------------------------------------------
      1          6           0        1.272132    0.481440    0.016970
      2          1           0        1.308042    1.176751   -0.837929
      3          1           0        1.272479    1.095212    0.933491
      4          6           0       -0.003915   -0.348219   -0.048427
      5          1           0        0.011850   -1.064988    0.783980
      6          1           0       -0.009992   -0.933429   -0.974198
      7          6           0       -1.275486    0.498188    0.024408
      8          1           0       -1.277042    1.099157    0.949363
      9          1           0       -1.311187    1.203278   -0.813417
     10          8           0        2.376348   -0.415883   -0.000775
     11          1           0        3.187033    0.107930    0.022594
     12          8           0       -2.460245   -0.280264   -0.083790
     13          1           0       -2.466385   -0.903194    0.654926
 ---------------------------------------------------------------------
 Rotational constants (GHZ):     20.5357263      1.9857464      1.8820298
 Leave Link  202 at Mon Nov 10 19:40:34 2025, MaxMem=    33554432 cpu:         0.0
 (Enter /opt/programs/gaussian/g09/d_pgi133/l301.exe)
 Standard basis: 6-311++G(d,p) (5D, 7F)
 Ernie: Thresh=  0.10000D-02 Tol=  0.10000D-05 Strict=F.
 There are   171 symmetry adapted cartesian basis functions of A   symmetry.
 There are   166 symmetry adapted basis functions of A   symmetry.
   166 basis functions,   252 primitive gaussians,   171 cartesian basis functions
    21 alpha electrons       21 beta electrons
       nuclear repulsion energy       184.5206426572 Hartrees.
 IExCor= 4336 DFT=T Ex+Corr=M062X ExCW=0 ScaHFX=  0.540000
 ScaDFX=  1.000000  1.000000  1.000000  1.000000 ScalE2=  1.000000  1.000000
 IRadAn=      0 IRanWt=     -1 IRanGd=            0 ICorTp=0 IEmpDi=  4
 NAtoms=   13 NActive=   13 NUniq=   13 SFac= 1.00D+00 NAtFMM=   60 NAOKFM=F Big=F
 Integral buffers will be    131072 words long.
 Raffenetti 2 integral format.
 Two-electron integral symmetry is turned on.
 Leave Link  301 at Mon Nov 10 19:40:34 2025, MaxMem=    33554432 cpu:         0.0
 (Enter /opt/programs/gaussian/g09/d_pgi133/l302.exe)
 NPDir=0 NMtPBC=     1 NCelOv=     1 NCel=       1 NClECP=     1 NCelD=      1
         NCelK=      1 NCelE2=     1 NClLst=     1 CellRange=     0.0.
 One-electron integrals computed using PRISM.
 NBasis=   166 RedAO= T EigKep=  4.43D-05  NBF=   166
 NBsUse=   166 1.00D-06 EigRej= -1.00D+00 NBFU=   166
 Precomputing XC quadrature grid using
 IXCGrd= 4 IRadAn=           0 IRanWt=          -1 IRanGd=           0 AccXCQ= 0.00D+00.
 Generated NRdTot=       0 NPtTot=           0 NUsed=           0 NTot=          32
 NSgBfM=   171   171   171   171   171 MxSgAt=    13 MxSgA2=    13.
 Leave Link  302 at Mon Nov 10 19:40:34 2025, MaxMem=    33554432 cpu:         0.1
 (Enter /opt/programs/gaussian/g09/d_pgi133/l303.exe)
 DipDrv:  MaxL=1.
 Leave Link  303 at Mon Nov 10 19:40:34 2025, MaxMem=    33554432 cpu:         0.0
 (Enter /opt/programs/gaussian/g09/d_pgi133/l401.exe)
 ExpMin= 3.60D-02 ExpMax= 8.59D+03 ExpMxC= 1.30D+03 IAcc=3 IRadAn=         5 AccDes= 0.00D+00
 Harris functional with IExCor= 1009 and IRadAn=       5 diagonalized for initial guess.
 HarFok:  IExCor= 1009 AccDes= 0.00D+00 IRadAn=         5 IDoV= 1 UseB2=F ITyADJ=14
 ICtDFT=  3500011 ScaDFX=  1.000000  1.000000  1.000000  1.000000
 FoFCou: FMM=F IPFlag=           0 FMFlag=      100000 FMFlg1=           0
         NFxFlg=           0 DoJE=T BraDBF=F KetDBF=T FulRan=T
         wScrn=  0.000000 ICntrl=     500 IOpCl=  0 I1Cent=   200000004 NGrid=           0
         NMat0=    1 NMatS0=      1 NMatT0=    0 NMatD0=    1 NMtDS0=    0 NMtDT0=    0
 Petite list used in FoFCou.
 Harris En= -269.442868133083    
 JPrj=0 DoOrth=F DoCkMO=F.
 Leave Link  401 at Mon Nov 10 19:40:36 2025, MaxMem=    33554432 cpu:         1.5
 (Enter /opt/programs/gaussian/g09/d_pgi133/l502.exe)
 Closed shell SCF:
 Using DIIS extrapolation, IDIIS=  1040.
 Integral symmetry usage will be decided dynamically.
 IVT=      108587 IEndB=      108587 NGot=    33554432 MDV=    33491898
 LenX=    33491898 LenY=    33462216
 Requested convergence on RMS density matrix=1.00D-08 within 128 cycles.
 Requested convergence on MAX density matrix=1.00D-06.
 Requested convergence on             energy=1.00D-06.
 No special actions if energy rises.
 Fock matrices will be formed incrementally for  20 cycles.

 Cycle   1  Pass 1  IDiag  1:
 FoFJK:  IHMeth= 1 ICntrl=       0 DoSepK=F KAlg= 0 I1Cent=   0 FoldK=F
 IRaf= 970000000 NMat=   1 IRICut=       1 DoRegI=T DoRafI=F ISym2E= 0.
 FoFCou: FMM=F IPFlag=           0 FMFlag=      100000 FMFlg1=           0
         NFxFlg=           0 DoJE=F BraDBF=F KetDBF=F FulRan=T
         wScrn=  0.000000 ICntrl=       0 IOpCl=  0 I1Cent=           0 NGrid=           0
         NMat0=    1 NMatS0=      1 NMatT0=    0 NMatD0=    1 NMtDS0=    0 NMtDT0=    0
 Symmetry not used in FoFCou.
 E= -269.362116652620    
 DIIS: error= 3.07D-02 at cycle   1 NSaved=   1.
 NSaved= 1 IEnMin= 1 EnMin= -269.362116652620     IErMin= 1 ErrMin= 3.07D-02
 ErrMax= 3.07D-02  0.00D+00 EMaxC= 1.00D-01 BMatC= 2.34D-01 BMatP= 2.34D-01
 IDIUse=3 WtCom= 6.93D-01 WtEn= 3.07D-01
 Coeff-Com:  0.100D+01
 Coeff-En:   0.100D+01
 Coeff:      0.100D+01
 Gap=     0.294 Goal=   None    Shift=    0.000
 GapD=    0.294 DampG=1.000 DampE=0.500 DampFc=0.5000 IDamp=-1.
 Damping current iteration by 5.00D-01
 RMSDP=6.75D-03 MaxDP=1.62D-01              OVMax= 1.32D-01

 Cycle   2  Pass 1  IDiag  1:
 RMSU=  3.36D-03    CP:  9.85D-01
 E= -269.443411151380     Delta-E=       -0.081294498760 Rises=F Damp=T
 DIIS: error= 7.92D-03 at cycle   2 NSaved=   2.
 NSaved= 2 IEnMin= 2 EnMin= -269.443411151380     IErMin= 2 ErrMin= 7.92D-03
 ErrMax= 7.92D-03  0.00D+00 EMaxC= 1.00D-01 BMatC= 1.50D-02 BMatP= 2.34D-01
 IDIUse=3 WtCom= 9.21D-01 WtEn= 7.92D-02
 Coeff-Com: -0.416D-01 0.104D+01
 Coeff-En:   0.000D+00 0.100D+01
 Coeff:     -0.383D-01 0.104D+01
 Gap=     0.354 Goal=   None    Shift=    0.000
 RMSDP=2.19D-03 MaxDP=9.35D-02 DE=-8.13D-02 OVMax= 7.39D-02

 Cycle   3  Pass 1  IDiag  1:
 RMSU=  2.05D-03    CP:  9.47D-01  8.44D-01
 E= -269.527086579931     Delta-E=       -0.083675428551 Rises=F Damp=F
 DIIS: error= 4.86D-03 at cycle   3 NSaved=   3.
 NSaved= 3 IEnMin= 3 EnMin= -269.527086579931     IErMin= 3 ErrMin= 4.86D-03
 ErrMax= 4.86D-03  0.00D+00 EMaxC= 1.00D-01 BMatC= 4.00D-03 BMatP= 1.50D-02
 IDIUse=3 WtCom= 9.51D-01 WtEn= 4.86D-02
 Coeff-Com: -0.763D-01 0.319D+00 0.757D+00
 Coeff-En:   0.000D+00 0.000D+00 0.100D+01
 Coeff:     -0.726D-01 0.304D+00 0.769D+00
 Gap=     0.348 Goal=   None    Shift=    0.000
 RMSDP=3.66D-04 MaxDP=8.25D-03 DE=-8.37D-02 OVMax= 1.11D-02

 Cycle   4  Pass 1  IDiag  1:
 RMSU=  3.10D-04    CP:  9.47D-01  9.02D-01  9.97D-01
 E= -269.529101549916     Delta-E=       -0.002014969985 Rises=F Damp=F
 DIIS: error= 2.22D-03 at cycle   4 NSaved=   4.
 NSaved= 4 IEnMin= 4 EnMin= -269.529101549916     IErMin= 4 ErrMin= 2.22D-03
 ErrMax= 2.22D-03  0.00D+00 EMaxC= 1.00D-01 BMatC= 8.49D-04 BMatP= 4.00D-03
 IDIUse=3 WtCom= 9.78D-01 WtEn= 2.22D-02
 Coeff-Com: -0.311D-01 0.809D-01 0.380D+00 0.570D+00
 Coeff-En:   0.000D+00 0.000D+00 0.155D+00 0.845D+00
 Coeff:     -0.304D-01 0.791D-01 0.375D+00 0.576D+00
 Gap=     0.346 Goal=   None    Shift=    0.000
 RMSDP=1.80D-04 MaxDP=3.91D-03 DE=-2.01D-03 OVMax= 4.88D-03

 Cycle   5  Pass 1  IDiag  1:
 RMSU=  1.01D-04    CP:  9.45D-01  8.82D-01  1.01D+00  6.03D-01
 E= -269.529797317918     Delta-E=       -0.000695768002 Rises=F Damp=F
 DIIS: error= 1.88D-04 at cycle   5 NSaved=   5.
 NSaved= 5 IEnMin= 5 EnMin= -269.529797317918     IErMin= 5 ErrMin= 1.88D-04
 ErrMax= 1.88D-04  0.00D+00 EMaxC= 1.00D-01 BMatC= 7.06D-06 BMatP= 8.49D-04
 IDIUse=3 WtCom= 9.98D-01 WtEn= 1.88D-03
 Coeff-Com: -0.314D-02 0.406D-02 0.464D-01 0.128D+00 0.825D+00
 Coeff-En:   0.000D+00 0.000D+00 0.000D+00 0.000D+00 0.100D+01
 Coeff:     -0.313D-02 0.405D-02 0.463D-01 0.128D+00 0.825D+00
 Gap=     0.346 Goal=   None    Shift=    0.000
 RMSDP=2.79D-05 MaxDP=8.25D-04 DE=-6.96D-04 OVMax= 5.88D-04

 Cycle   6  Pass 1  IDiag  1:
 RMSU=  2.04D-05    CP:  9.45D-01  8.79D-01  1.01D+00  6.39D-01  9.22D-01
 E= -269.529803299045     Delta-E=       -0.000005981126 Rises=F Damp=F
 DIIS: error= 3.17D-05 at cycle   6 NSaved=   6.
 NSaved= 6 IEnMin= 6 EnMin= -269.529803299045     IErMin= 6 ErrMin= 3.17D-05
 ErrMax= 3.17D-05  0.00D+00 EMaxC= 1.00D-01 BMatC= 1.90D-07 BMatP= 7.06D-06
 IDIUse=1 WtCom= 1.00D+00 WtEn= 0.00D+00
 Coeff-Com:  0.541D-03-0.174D-02-0.419D-02 0.194D-02 0.101D+00 0.903D+00
 Coeff:      0.541D-03-0.174D-02-0.419D-02 0.194D-02 0.101D+00 0.903D+00
 Gap=     0.346 Goal=   None    Shift=    0.000
 RMSDP=1.10D-05 MaxDP=5.37D-04 DE=-5.98D-06 OVMax= 1.77D-04

 Cycle   7  Pass 1  IDiag  1:
 RMSU=  5.85D-06    CP:  9.45D-01  8.77D-01  1.01D+00  6.43D-01  9.63D-01
                    CP:  1.04D+00
 E= -269.529803482497     Delta-E=       -0.000000183452 Rises=F Damp=F
 DIIS: error= 1.70D-05 at cycle   7 NSaved=   7.
 NSaved= 7 IEnMin= 7 EnMin= -269.529803482497     IErMin= 7 ErrMin= 1.70D-05
 ErrMax= 1.70D-05  0.00D+00 EMaxC= 1.00D-01 BMatC= 6.50D-08 BMatP= 1.90D-07
 IDIUse=1 WtCom= 1.00D+00 WtEn= 0.00D+00
 Coeff-Com:  0.579D-03-0.121D-02-0.668D-02-0.122D-01-0.421D-01 0.384D+00
 Coeff-Com:  0.677D+00
 Coeff:      0.579D-03-0.121D-02-0.668D-02-0.122D-01-0.421D-01 0.384D+00
 Coeff:      0.677D+00
 Gap=     0.346 Goal=   None    Shift=    0.000
 RMSDP=2.40D-06 MaxDP=6.34D-05 DE=-1.83D-07 OVMax= 5.02D-05

 Cycle   8  Pass 1  IDiag  1:
 RMSU=  1.03D-06    CP:  9.45D-01  8.76D-01  1.01D+00  6.43D-01  9.65D-01
                    CP:  1.11D+00  8.80D-01
 E= -269.529803542105     Delta-E=       -0.000000059608 Rises=F Damp=F
 DIIS: error= 2.49D-06 at cycle   8 NSaved=   8.
 NSaved= 8 IEnMin= 8 EnMin= -269.529803542105     IErMin= 8 ErrMin= 2.49D-06
 ErrMax= 2.49D-06  0.00D+00 EMaxC= 1.00D-01 BMatC= 2.19D-09 BMatP= 6.50D-08
 IDIUse=1 WtCom= 1.00D+00 WtEn= 0.00D+00
 Coeff-Com:  0.148D-03-0.292D-03-0.189D-02-0.387D-02-0.183D-01 0.793D-01
 Coeff-Com:  0.212D+00 0.733D+00
 Coeff:      0.148D-03-0.292D-03-0.189D-02-0.387D-02-0.183D-01 0.793D-01
 Coeff:      0.212D+00 0.733D+00
 Gap=     0.346 Goal=   None    Shift=    0.000
 RMSDP=5.90D-07 MaxDP=1.85D-05 DE=-5.96D-08 OVMax= 1.48D-05

 Cycle   9  Pass 1  IDiag  1:
 RMSU=  3.55D-07    CP:  9.45D-01  8.76D-01  1.01D+00  6.43D-01  9.65D-01
                    CP:  1.12D+00  9.19D-01  1.02D+00
 E= -269.529803543700     Delta-E=       -0.000000001595 Rises=F Damp=F
 DIIS: error= 1.18D-06 at cycle   9 NSaved=   9.
 NSaved= 9 IEnMin= 9 EnMin= -269.529803543700     IErMin= 9 ErrMin= 1.18D-06
 ErrMax= 1.18D-06  0.00D+00 EMaxC= 1.00D-01 BMatC= 4.14D-10 BMatP= 2.19D-09
 IDIUse=1 WtCom= 1.00D+00 WtEn= 0.00D+00
 Coeff-Com: -0.913D-06 0.603D-05-0.113D-03-0.364D-03-0.345D-02-0.597D-02
 Coeff-Com:  0.186D-01 0.316D+00 0.675D+00
 Coeff:     -0.913D-06 0.603D-05-0.113D-03-0.364D-03-0.345D-02-0.597D-02
 Coeff:      0.186D-01 0.316D+00 0.675D+00
 Gap=     0.346 Goal=   None    Shift=    0.000
 RMSDP=1.46D-07 MaxDP=3.44D-06 DE=-1.59D-09 OVMax= 4.28D-06

 Cycle  10  Pass 1  IDiag  1:
 RMSU=  9.73D-08    CP:  9.45D-01  8.76D-01  1.01D+00  6.43D-01  9.65D-01
                    CP:  1.12D+00  9.25D-01  1.10D+00  9.15D-01
 E= -269.529803544011     Delta-E=       -0.000000000311 Rises=F Damp=F
 DIIS: error= 3.25D-07 at cycle  10 NSaved=  10.
 NSaved=10 IEnMin=10 EnMin= -269.529803544011     IErMin=10 ErrMin= 3.25D-07
 ErrMax= 3.25D-07  0.00D+00 EMaxC= 1.00D-01 BMatC= 2.45D-11 BMatP= 4.14D-10
 IDIUse=1 WtCom= 1.00D+00 WtEn= 0.00D+00
 Coeff-Com: -0.154D-04 0.318D-04 0.151D-03 0.271D-03 0.780D-03-0.967D-02
 Coeff-Com: -0.170D-01 0.182D-01 0.219D+00 0.788D+00
 Coeff:     -0.154D-04 0.318D-04 0.151D-03 0.271D-03 0.780D-03-0.967D-02
 Coeff:     -0.170D-01 0.182D-01 0.219D+00 0.788D+00
 Gap=     0.346 Goal=   None    Shift=    0.000
 RMSDP=6.48D-08 MaxDP=2.53D-06 DE=-3.11D-10 OVMax= 1.71D-06

 Cycle  11  Pass 1  IDiag  1:
 RMSU=  2.87D-08    CP:  9.45D-01  8.76D-01  1.01D+00  6.43D-01  9.65D-01
                    CP:  1.12D+00  9.32D-01  1.12D+00  9.66D-01  9.50D-01
 E= -269.529803544037     Delta-E=       -0.000000000026 Rises=F Damp=F
 DIIS: error= 5.97D-08 at cycle  11 NSaved=  11.
 NSaved=11 IEnMin=11 EnMin= -269.529803544037     IErMin=11 ErrMin= 5.97D-08
 ErrMax= 5.97D-08  0.00D+00 EMaxC= 1.00D-01 BMatC= 5.05D-13 BMatP= 2.45D-11
 IDIUse=1 WtCom= 1.00D+00 WtEn= 0.00D+00
 Coeff-Com:  0.114D-07 0.329D-06 0.949D-05 0.139D-04 0.117D-03 0.415D-04
 Coeff-Com: -0.148D-02-0.138D-01-0.186D-01 0.335D-01 0.100D+01
 Coeff:      0.114D-07 0.329D-06 0.949D-05 0.139D-04 0.117D-03 0.415D-04
 Coeff:     -0.148D-02-0.138D-01-0.186D-01 0.335D-01 0.100D+01
 Gap=     0.346 Goal=   None    Shift=    0.000
 RMSDP=1.35D-08 MaxDP=4.20D-07 DE=-2.59D-11 OVMax= 5.67D-07

 Cycle  12  Pass 1  IDiag  1:
 RMSU=  7.46D-09    CP:  9.45D-01  8.76D-01  1.01D+00  6.43D-01  9.65D-01
                    CP:  1.12D+00  9.33D-01  1.12D+00  9.74D-01  1.00D+00
                    CP:  1.19D+00
 E= -269.529803544038     Delta-E=       -0.000000000001 Rises=F Damp=F
 DIIS: error= 2.18D-08 at cycle  12 NSaved=  12.
 NSaved=12 IEnMin=12 EnMin= -269.529803544038     IErMin=12 ErrMin= 2.18D-08
 ErrMax= 2.18D-08  0.00D+00 EMaxC= 1.00D-01 BMatC= 1.02D-13 BMatP= 5.05D-13
 IDIUse=1 WtCom= 1.00D+00 WtEn= 0.00D+00
 Coeff-Com:  0.967D-06-0.184D-05-0.548D-05-0.115D-04-0.834D-05 0.616D-03
 Coeff-Com:  0.528D-03-0.634D-02-0.202D-01-0.355D-01 0.366D+00 0.695D+00
 Coeff:      0.967D-06-0.184D-05-0.548D-05-0.115D-04-0.834D-05 0.616D-03
 Coeff:      0.528D-03-0.634D-02-0.202D-01-0.355D-01 0.366D+00 0.695D+00
 Gap=     0.346 Goal=   None    Shift=    0.000
 RMSDP=3.09D-09 MaxDP=9.05D-08 DE=-6.82D-13 OVMax= 1.33D-07

 SCF Done:  E(RM062X) =  -269.529803544     A.U. after   12 cycles
            NFock= 12  Conv=0.31D-08     -V/T= 2.0039
 KE= 2.684931484714D+02 PE=-1.000585324983D+03 EE= 2.780417303107D+02
 Leave Link  502 at Mon Nov 10 19:41:00 2025, MaxMem=    33554432 cpu:        24.5
 (Enter /opt/programs/gaussian/g09/d_pgi133/l601.exe)
 Copying SCF densities to generalized density rwf, IOpCl= 0 IROHF=0.

 **********************************************************************

            Population analysis using the SCF density.

 **********************************************************************

 Orbital symmetries:
       Occupied  (A) (A) (A) (A) (A) (A) (A) (A) (A) (A) (A) (A)
                 (A) (A) (A) (A) (A) (A) (A) (A) (A)
       Virtual   (A) (A) (A) (A) (A) (A) (A) (A) (A) (A) (A) (A)
                 (A) (A) (A) (A) (A) (A) (A) (A) (A) (A) (A) (A)
                 (A) (A) (A) (A) (A) (A) (A) (A) (A) (A) (A) (A)
                 (A) (A) (A) (A) (A) (A) (A) (A) (A) (A) (A) (A)
                 (A) (A) (A) (A) (A) (A) (A) (A) (A) (A) (A) (A)
                 (A) (A) (A) (A) (A) (A) (A) (A) (A) (A) (A) (A)
                 (A) (A) (A) (A) (A) (A) (A) (A) (A) (A) (A) (A)
                 (A) (A) (A) (A) (A) (A) (A) (A) (A) (A) (A) (A)
                 (A) (A) (A) (A) (A) (A) (A) (A) (A) (A) (A) (A)
                 (A) (A) (A) (A) (A) (A) (A) (A) (A) (A) (A) (A)
                 (A) (A) (A) (A) (A) (A) (A) (A) (A) (A) (A) (A)
                 (A) (A) (A) (A) (A) (A) (A) (A) (A) (A) (A) (A)
                 (A)
 The electronic state is 1-A.
 Alpha  occ. eigenvalues --  -19.62967 -19.62498 -10.59412 -10.58946 -10.53782
 Alpha  occ. eigenvalues --   -1.15133  -1.14655  -0.88013  -0.76357  -0.68906
 Alpha  occ. eigenvalues --   -0.60680  -0.58298  -0.54974  -0.51659  -0.49502
 Alpha  occ. eigenvalues --   -0.46639  -0.43722  -0.40902  -0.39518  -0.35829
 Alpha  occ. eigenvalues --   -0.35254
 Alpha virt. eigenvalues --   -0.00689   0.00200   0.01410   0.01952   0.03575
 Alpha virt. eigenvalues --    0.04586   0.05396   0.05583   0.07065   0.09475
 Alpha virt. eigenvalues --    0.10249   0.11569   0.12323   0.12772   0.13180
 Alpha virt. eigenvalues --    0.13258   0.13603   0.14867   0.15364   0.17116
 Alpha virt. eigenvalues --    0.19997   0.21224   0.21865   0.22613   0.23204
 Alpha virt. eigenvalues --    0.23839   0.24217   0.25828   0.26803   0.29254
 Alpha virt. eigenvalues --    0.30817   0.30915   0.32102   0.32909   0.34176
 Alpha virt. eigenvalues --    0.34270   0.34881   0.39358   0.40375   0.41030
 Alpha virt. eigenvalues --    0.46166   0.46898   0.47910   0.54800   0.57376
 Alpha virt. eigenvalues --    0.58985   0.61483   0.63700   0.67155   0.68051
 Alpha virt. eigenvalues --    0.69157   0.69901   0.71303   0.73369   0.76134
 Alpha virt. eigenvalues --    0.78151   0.78992   0.92406   0.96603   1.00699
 Alpha virt. eigenvalues --    1.03030   1.03951   1.13094   1.14921   1.19927
 Alpha virt. eigenvalues --    1.20306   1.24055   1.28371   1.30376   1.31909
 Alpha virt. eigenvalues --    1.35613   1.41235   1.45497   1.48388   1.54371
 Alpha virt. eigenvalues --    1.55576   1.58685   1.59264   1.60788   1.62294
 Alpha virt. eigenvalues --    1.63255   1.68225   1.68417   1.71204   1.74114
 Alpha virt. eigenvalues --    1.75154   1.78993   1.81128   1.84169   1.90801
 Alpha virt. eigenvalues --    1.94147   2.03721   2.05139   2.10379   2.12080
 Alpha virt. eigenvalues --    2.13738   2.16284   2.20128   2.29509   2.34779
 Alpha virt. eigenvalues --    2.37641   2.48909   2.50389   2.51073   2.52545
 Alpha virt. eigenvalues --    2.54862   2.58647   2.62606   2.64023   2.66055
 Alpha virt. eigenvalues --    2.72351   2.79045   2.80004   2.89737   2.93368
 Alpha virt. eigenvalues --    2.96091   3.03118   3.12551   3.16368   3.18562
 Alpha virt. eigenvalues --    3.25489   3.26579   3.31928   3.35940   3.47897
 Alpha virt. eigenvalues --    3.78171   3.83224   3.87528   3.91853   3.93498
 Alpha virt. eigenvalues --    4.03431   4.05042   4.17085   4.34192   5.16676
 Alpha virt. eigenvalues --    5.19498   5.49211   5.50420   5.73058   5.74898
 Alpha virt. eigenvalues --   23.89266  23.92110  23.97515  50.02104  50.02864
          Condensed to atoms (all electrons):
               1          2          3          4          5          6
     1  C    5.650232   0.401801   0.362371  -0.127716  -0.023351  -0.063313
     2  H    0.401801   0.670987  -0.117216  -0.045406   0.027295  -0.038601
     3  H    0.362371  -0.117216   0.690315   0.004612  -0.039431   0.027563
     4  C   -0.127716  -0.045406   0.004612   5.950390   0.369496   0.472017
     5  H   -0.023351   0.027295  -0.039431   0.369496   0.622431  -0.087151
     6  H   -0.063313  -0.038601   0.027563   0.472017  -0.087151   0.556202
     7  C   -0.035502   0.003263  -0.026733  -0.171536   0.018002  -0.072094
     8  H   -0.026010  -0.019226   0.024652   0.091215  -0.055068   0.028920
     9  H   -0.002909   0.016844  -0.015550  -0.048548   0.026990  -0.034937
    10  O    0.207800  -0.049580  -0.061655  -0.184708   0.011768   0.010777
    11  H    0.029286  -0.006688  -0.004578  -0.008544  -0.001177  -0.000703
    12  O    0.031767  -0.002922   0.003015  -0.103136  -0.029803   0.020786
    13  H    0.005438  -0.000910  -0.000297   0.000584   0.014127  -0.005792
               7          8          9         10         11         12
     1  C   -0.035502  -0.026010  -0.002909   0.207800   0.029286   0.031767
     2  H    0.003263  -0.019226   0.016844  -0.049580  -0.006688  -0.002922
     3  H   -0.026733   0.024652  -0.015550  -0.061655  -0.004578   0.003015
     4  C   -0.171536   0.091215  -0.048548  -0.184708  -0.008544  -0.103136
     5  H    0.018002  -0.055068   0.026990   0.011768  -0.001177  -0.029803
     6  H   -0.072094   0.028920  -0.034937   0.010777  -0.000703   0.020786
     7  C    5.688884   0.237270   0.447285   0.053454  -0.005770   0.242790
     8  H    0.237270   0.714071  -0.106215  -0.002643   0.000372  -0.015439
     9  H    0.447285  -0.106215   0.618262  -0.002955   0.000217  -0.098351
    10  O    0.053454  -0.002643  -0.002955   8.065274   0.224068  -0.001326
    11  H   -0.005770   0.000372   0.000217   0.224068   0.516634  -0.000088
    12  O    0.242790  -0.015439  -0.098351  -0.001326  -0.000088   7.955088
    13  H   -0.035645  -0.021007   0.021154  -0.000243  -0.000067   0.254438
              13
     1  C    0.005438
     2  H   -0.000910
     3  H   -0.000297
     4  C    0.000584
     5  H    0.014127
     6  H   -0.005792
     7  C   -0.035645
     8  H   -0.021007
     9  H    0.021154
    10  O   -0.000243
    11  H   -0.000067
    12  O    0.254438
    13  H    0.519430
 Mulliken charges:
               1
     1  C   -0.409895
     2  H    0.160359
     3  H    0.152932
     4  C   -0.198722
     5  H    0.145872
     6  H    0.186326
     7  C   -0.343670
     8  H    0.149106
     9  H    0.178715
    10  O   -0.270031
    11  H    0.257038
    12  O   -0.256818
    13  H    0.248789
 Sum of Mulliken charges =   0.00000
 Mulliken charges with hydrogens summed into heavy atoms:
               1
     1  C   -0.096604
     4  C    0.133475
     7  C   -0.015849
    10  O   -0.012993
    12  O   -0.008029
 Electronic spatial extent (au):  <R**2>=            625.5467
 Charge=              0.0000 electrons
 Dipole moment (field-independent basis, Debye):
    X=              1.4982    Y=              1.5352    Z=              1.2664  Tot=              2.4910
 Quadrupole moment (field-independent basis, Debye-Ang):
   XX=            -34.6137   YY=            -31.5737   ZZ=            -31.2341
   XY=              5.5896   XZ=             -3.2945   YZ=             -1.5763
 Traceless Quadrupole moment (field-independent basis, Debye-Ang):
   XX=             -2.1399   YY=              0.9001   ZZ=              1.2397
   XY=              5.5896   XZ=             -3.2945   YZ=             -1.5763
 Octapole moment (field-independent basis, Debye-Ang**2):
  XXX=             40.9837  YYY=             -2.7768  ZZZ=              0.6789  XYY=             -5.1140
  XXY=              6.9513  XXZ=              9.4515  XZZ=             -2.6579  YZZ=             -0.5179
  YYZ=              1.0553  XYZ=              3.8596
 Hexadecapole moment (field-independent basis, Debye-Ang**3):
 XXXX=           -572.0404 YYYY=            -97.9946 ZZZZ=            -54.2957 XXXY=             42.3671
 XXXZ=            -21.9396 YYYX=              6.0880 YYYZ=             -2.7838 ZZZX=             -2.5498
 ZZZY=             -1.3061 XXYY=           -115.3322 XXZZ=           -110.3316 YYZZ=            -22.6845
 XXYZ=             -9.7897 YYXZ=             -3.3062 ZZXY=              2.8126
 N-N= 1.845206426572D+02 E-N=-1.000585325591D+03  KE= 2.684931484714D+02
 No NMR shielding tensors so no spin-rotation constants.
 Leave Link  601 at Mon Nov 10 19:41:00 2025, MaxMem=    33554432 cpu:         0.0
 (Enter /opt/programs/gaussian/g09/d_pgi133/l9999.exe)
 1\1\GINC-EXADE5\SP\RM062X\6-311++G(d,p)\C3H8O2\APINTO\10-Nov-2025\0\\#
 p M062X/6-311++G(d,p)\\SP\\0,1\C,0,1.3749,0.118219,0.267167\H,0,1.4693
 78,0.806909,1.122958\H,0,1.450349,-0.907036,0.667026\C,0,0.020377,0.31
 2997,-0.402337\H,0,-0.025191,-0.347351,-1.279133\H,0,-0.057998,1.34102
 5,-0.771899\C,0,-1.157482,0.017431,0.527121\H,0,-1.085109,-1.013411,0.
 91291\H,0,-1.133006,0.684844,1.395648\O,0,2.381879,0.364872,-0.707488\
 H,0,3.241835,0.259576,-0.281431\O,0,-2.416591,0.246372,-0.092216\H,0,-
 2.475717,-0.343154,-0.855593\\Version=ES64L-G09RevD.01\State=1-A\HF=-2
 69.5298035\RMSD=3.094e-09\Dipole=0.6546043,-0.5938865,0.4233763\Quadru
 pole=-0.798184,0.5283819,0.2698021,1.5532771,4.7286957,1.1354862\PG=C0
 1 [X(C3H8O2)]\\@


 KNIGHT- SIRE, I'VE JUST RETURNED FROM THE FRONT
 KING-   HOW GOES THE BATTLE                    
 KNIGHT- THE SITUATION IS QUITE FLUID           
 KING-   WHAT DOES *THAT* MEAN                  
 KNIGHT- WE'RE UP THE CREEK                     
                THE WIZARD OF ID                
 Job cpu time:       0 days  0 hours  0 minutes 26.1 seconds.
 File lengths (MBytes):  RWF=     16 Int=      0 D2E=      0 Chk=      2 Scr=      1
 Normal termination of Gaussian 09 at Mon Nov 10 19:41:00 2025.
