 Entering Gaussian System, Link 0=g09
 Input=xau.com
 Output=xau.log
 Initial command:
 /opt/programs/gaussian/g09/d_pgi133/l1.exe "/scratch/users/apinto/lixo/Gau-1266139.inp" -scrdir="/scratch/users/apinto/lixo/"
 Entering Link 1 = /opt/programs/gaussian/g09/d_pgi133/l1.exe PID=   1266141.
  
 Copyright (c) 1988,1990,1992,1993,1995,1998,2003,2009,2013,
            Gaussian, Inc.  All Rights Reserved.
  
 This is part of the Gaussian(R) 09 program.  It is based on
 the Gaussian(R) 03 system (copyright 2003, Gaussian, Inc.),
 the Gaussian(R) 98 system (copyright 1998, Gaussian, Inc.),
 the Gaussian(R) 94 system (copyright 1995, Gaussian, Inc.),
 the Gaussian 92(TM) system (copyright 1992, Gaussian, Inc.),
 the Gaussian 90(TM) system (copyright 1990, Gaussian, Inc.),
 the Gaussian 88(TM) system (copyright 1988, Gaussian, Inc.),
 the Gaussian 86(TM) system (copyright 1986, Carnegie Mellon
 University), and the Gaussian 82(TM) system (copyright 1983,
 Carnegie Mellon University). Gaussian is a federally registered
 trademark of Gaussian, Inc.
  
 This software contains proprietary and confidential information,
 including trade secrets, belonging to Gaussian, Inc.
  
 This software is provided under written license and may be
 used, copied, transmitted, or stored only in accord with that
 written license.
  
 The following legend is applicable only to US Government
 contracts under FAR:
  
                    RESTRICTED RIGHTS LEGEND
  
 Use, reproduction and disclosure by the US Government is
 subject to restrictions as set forth in subparagraphs (a)
 and (c) of the Commercial Computer Software - Restricted
 Rights clause in FAR 52.227-19.
  
 Gaussian, Inc.
 340 Quinnipiac St., Bldg. 40, Wallingford CT 06492
  
  
 ---------------------------------------------------------------
 Warning -- This program may not be used in any manner that
 competes with the business of Gaussian, Inc. or will provide
 assistance to any competitor of Gaussian, Inc.  The licensee
 of this program is prohibited from giving any competitor of
 Gaussian, Inc. access to this program.  By using this program,
 the user acknowledges that Gaussian, Inc. is engaged in the
 business of creating and licensing software in the field of
 computational chemistry and represents and warrants to the
 licensee that it is not a competitor of Gaussian, Inc. and that
 it will not use this program in any manner prohibited above.
 ---------------------------------------------------------------
  

 Cite this work as:
 Gaussian 09, Revision D.01,
 M. J. Frisch, G. W. Trucks, H. B. Schlegel, G. E. Scuseria, 
 M. A. Robb, J. R. Cheeseman, G. Scalmani, V. Barone, B. Mennucci, 
 G. A. Petersson, H. Nakatsuji, M. Caricato, X. Li, H. P. Hratchian, 
 A. F. Izmaylov, J. Bloino, G. Zheng, J. L. Sonnenberg, M. Hada, 
 M. Ehara, K. Toyota, R. Fukuda, J. Hasegawa, M. Ishida, T. Nakajima, 
 Y. Honda, O. Kitao, H. Nakai, T. Vreven, J. A. Montgomery, Jr., 
 J. E. Peralta, F. Ogliaro, M. Bearpark, J. J. Heyd, E. Brothers, 
 K. N. Kudin, V. N. Staroverov, T. Keith, R. Kobayashi, J. Normand, 
 K. Raghavachari, A. Rendell, J. C. Burant, S. S. Iyengar, J. Tomasi, 
 M. Cossi, N. Rega, J. M. Millam, M. Klene, J. E. Knox, J. B. Cross, 
 V. Bakken, C. Adamo, J. Jaramillo, R. Gomperts, R. E. Stratmann, 
 O. Yazyev, A. J. Austin, R. Cammi, C. Pomelli, J. W. Ochterski, 
 R. L. Martin, K. Morokuma, V. G. Zakrzewski, G. A. Voth, 
 P. Salvador, J. J. Dannenberg, S. Dapprich, A. D. Daniels, 
 O. Farkas, J. B. Foresman, J. V. Ortiz, J. Cioslowski, 
 and D. J. Fox, Gaussian, Inc., Wallingford CT, 2013.
 
 ******************************************
 Gaussian 09:  ES64L-G09RevD.01 24-Apr-2013
                10-Nov-2025 
 ******************************************
 ----------------------
 #p M062X/6-311++G(d,p)
 ----------------------
 1/38=1/1;
 2/12=2,17=6,18=5,40=1/2;
 3/5=4,6=6,7=1111,11=2,16=1,25=1,30=1,74=-55/1,2,3;
 4//1;
 5/5=2,38=5/2;
 6/7=2,8=2,9=2,10=2,28=1/1;
 99/5=1,9=1/99;
 Leave Link    1 at Mon Nov 10 19:41:00 2025, MaxMem=           0 cpu:         0.0
 (Enter /opt/programs/gaussian/g09/d_pgi133/l101.exe)
 --
 SP
 --
 Symbolic Z-matrix:
 Charge =  0 Multiplicity = 1
 C                     1.37522   0.09498   0.25998 
 H                     1.43737   0.73559   1.15559 
 H                     1.48097  -0.94841   0.60063 
 C                     0.02173   0.28835  -0.41193 
 H                    -0.0394   -0.38586  -1.27707 
 H                    -0.04059   1.31107  -0.79932 
 C                    -1.15688   0.036     0.52925 
 H                    -1.09818  -0.98325   0.94731 
 H                    -1.11931   0.7298    1.37625 
 O                     2.3836    0.43542  -0.68444 
 H                     3.24264   0.31069  -0.26182 
 O                    -2.41502   0.26341  -0.09269 
 H                    -2.48452  -0.34648  -0.83901 
 
 NAtoms=     13 NQM=       13 NQMF=       0 NMMI=      0 NMMIF=      0
                NMic=       0 NMicF=      0.
                    Isotopes and Nuclear Properties:
 (Nuclear quadrupole moments (NQMom) in fm**2, nuclear magnetic moments (NMagM)
  in nuclear magnetons)

  Atom         1           2           3           4           5           6           7           8           9          10
 IAtWgt=          12           1           1          12           1           1          12           1           1          16
 AtmWgt=  12.0000000   1.0078250   1.0078250  12.0000000   1.0078250   1.0078250  12.0000000   1.0078250   1.0078250  15.9949146
 NucSpn=           0           1           1           0           1           1           0           1           1           0
 AtZEff=   0.0000000   0.0000000   0.0000000   0.0000000   0.0000000   0.0000000   0.0000000   0.0000000   0.0000000   0.0000000
 NQMom=    0.0000000   0.0000000   0.0000000   0.0000000   0.0000000   0.0000000   0.0000000   0.0000000   0.0000000   0.0000000
 NMagM=    0.0000000   2.7928460   2.7928460   0.0000000   2.7928460   2.7928460   0.0000000   2.7928460   2.7928460   0.0000000
 AtZNuc=   6.0000000   1.0000000   1.0000000   6.0000000   1.0000000   1.0000000   6.0000000   1.0000000   1.0000000   8.0000000

  Atom        11          12          13
 IAtWgt=           1          16           1
 AtmWgt=   1.0078250  15.9949146   1.0078250
 NucSpn=           1           0           1
 AtZEff=   0.0000000   0.0000000   0.0000000
 NQMom=    0.0000000   0.0000000   0.0000000
 NMagM=    2.7928460   0.0000000   2.7928460
 AtZNuc=   1.0000000   8.0000000   1.0000000
 Leave Link  101 at Mon Nov 10 19:41:00 2025, MaxMem=    33554432 cpu:         0.0
 (Enter /opt/programs/gaussian/g09/d_pgi133/l202.exe)
                          Input orientation:                          
 ---------------------------------------------------------------------
 Center     Atomic      Atomic             Coordinates (Angstroms)
 Number     Number       Type             X           Y           Z
 ---------------------------------------------------------------------
      1          6           0        1.375222    0.094984    0.259977
      2          1           0        1.437366    0.735589    1.155588
      3          1           0        1.480965   -0.948412    0.600631
      4          6           0        0.021730    0.288345   -0.411925
      5          1           0       -0.039401   -0.385858   -1.277070
      6          1           0       -0.040587    1.311069   -0.799320
      7          6           0       -1.156884    0.036003    0.529245
      8          1           0       -1.098179   -0.983247    0.947313
      9          1           0       -1.119310    0.729795    1.376254
     10          8           0        2.383599    0.435418   -0.684439
     11          1           0        3.242636    0.310685   -0.261815
     12          8           0       -2.415017    0.263405   -0.092691
     13          1           0       -2.484515   -0.346482   -0.839013
 ---------------------------------------------------------------------
                    Distance matrix (angstroms):
                    1          2          3          4          5
     1  C    0.000000
     2  H    1.102885   0.000000
     3  H    1.102679   1.773623   0.000000
     4  C    1.523411   2.158970   2.164302   0.000000
     5  H    2.143567   3.058808   2.480673   1.098527   0.000000
     6  H    2.146040   2.517377   3.062717   1.095410   1.762898
     7  C    2.547066   2.758960   2.816455   1.529251   2.165527
     8  H    2.784372   3.070304   2.602573   2.172250   2.534909
     9  H    2.805664   2.566188   3.190517   2.166664   3.074250
    10  O    1.422899   2.090732   2.093117   2.382083   2.626144
    11  H    1.950905   2.334218   2.330799   3.224479   3.505379
    12  O    3.810335   4.077010   4.138583   2.457696   2.732736
    13  H    4.037356   4.531055   4.261446   2.620434   2.484356
                    6          7          8          9         10
     6  H    0.000000
     7  C    2.153369   0.000000
     8  H    3.071337   1.103222   0.000000
     9  H    2.496927   1.095529   1.766055   0.000000
    10  O    2.580047   3.763985   4.098537   4.074737   0.000000
    11  H    3.474080   4.478504   4.688169   4.678194   0.965460
    12  O    2.689766   1.421765   2.090409   2.013498   4.838023
    13  H    2.953275   1.944487   2.349119   2.815948   4.932930
                   11         12         13
    11  H    0.000000
    12  O    5.660378   0.000000
    13  H    5.793555   0.966327   0.000000
 Stoichiometry    C3H8O2
 Framework group  C1[X(C3H8O2)]
 Deg. of freedom    33
 Full point group                 C1      NOp   1
 Largest Abelian subgroup         C1      NOp   1
 Largest concise Abelian subgroup C1      NOp   1
                         Standard orientation:                         
 ---------------------------------------------------------------------
 Center     Atomic      Atomic             Coordinates (Angstroms)
 Number     Number       Type             X           Y           Z
 ---------------------------------------------------------------------
      1          6           0        1.271767    0.479044    0.047378
      2          1           0        1.275363    1.199808   -0.787393
      3          1           0        1.303282    1.065106    0.980887
      4          6           0       -0.004021   -0.352019   -0.002435
      5          1           0       -0.010807   -1.035308    0.857701
      6          1           0        0.011215   -0.974018   -0.903993
      7          6           0       -1.274750    0.498778   -0.001682
      8          1           0       -1.296312    1.149241    0.889121
      9          1           0       -1.288915    1.157548   -0.876899
     10          8           0        2.376976   -0.412781   -0.040959
     11          1           0        3.186972    0.111462   -0.006480
     12          8           0       -2.458991   -0.282439   -0.094891
     13          1           0       -2.482653   -0.866894    0.674292
 ---------------------------------------------------------------------
 Rotational constants (GHZ):     20.5343277      1.9854240      1.8825897
 Leave Link  202 at Mon Nov 10 19:41:00 2025, MaxMem=    33554432 cpu:         0.0
 (Enter /opt/programs/gaussian/g09/d_pgi133/l301.exe)
 Standard basis: 6-311++G(d,p) (5D, 7F)
 Ernie: Thresh=  0.10000D-02 Tol=  0.10000D-05 Strict=F.
 There are   171 symmetry adapted cartesian basis functions of A   symmetry.
 There are   166 symmetry adapted basis functions of A   symmetry.
   166 basis functions,   252 primitive gaussians,   171 cartesian basis functions
    21 alpha electrons       21 beta electrons
       nuclear repulsion energy       184.5200372333 Hartrees.
 IExCor= 4336 DFT=T Ex+Corr=M062X ExCW=0 ScaHFX=  0.540000
 ScaDFX=  1.000000  1.000000  1.000000  1.000000 ScalE2=  1.000000  1.000000
 IRadAn=      0 IRanWt=     -1 IRanGd=            0 ICorTp=0 IEmpDi=  4
 NAtoms=   13 NActive=   13 NUniq=   13 SFac= 1.00D+00 NAtFMM=   60 NAOKFM=F Big=F
 Integral buffers will be    131072 words long.
 Raffenetti 2 integral format.
 Two-electron integral symmetry is turned on.
 Leave Link  301 at Mon Nov 10 19:41:00 2025, MaxMem=    33554432 cpu:         0.0
 (Enter /opt/programs/gaussian/g09/d_pgi133/l302.exe)
 NPDir=0 NMtPBC=     1 NCelOv=     1 NCel=       1 NClECP=     1 NCelD=      1
         NCelK=      1 NCelE2=     1 NClLst=     1 CellRange=     0.0.
 One-electron integrals computed using PRISM.
 NBasis=   166 RedAO= T EigKep=  4.41D-05  NBF=   166
 NBsUse=   166 1.00D-06 EigRej= -1.00D+00 NBFU=   166
 Precomputing XC quadrature grid using
 IXCGrd= 4 IRadAn=           0 IRanWt=          -1 IRanGd=           0 AccXCQ= 0.00D+00.
 Generated NRdTot=       0 NPtTot=           0 NUsed=           0 NTot=          32
 NSgBfM=   171   171   171   171   171 MxSgAt=    13 MxSgA2=    13.
 Leave Link  302 at Mon Nov 10 19:41:00 2025, MaxMem=    33554432 cpu:         0.1
 (Enter /opt/programs/gaussian/g09/d_pgi133/l303.exe)
 DipDrv:  MaxL=1.
 Leave Link  303 at Mon Nov 10 19:41:00 2025, MaxMem=    33554432 cpu:         0.0
 (Enter /opt/programs/gaussian/g09/d_pgi133/l401.exe)
 ExpMin= 3.60D-02 ExpMax= 8.59D+03 ExpMxC= 1.30D+03 IAcc=3 IRadAn=         5 AccDes= 0.00D+00
 Harris functional with IExCor= 1009 and IRadAn=       5 diagonalized for initial guess.
 HarFok:  IExCor= 1009 AccDes= 0.00D+00 IRadAn=         5 IDoV= 1 UseB2=F ITyADJ=14
 ICtDFT=  3500011 ScaDFX=  1.000000  1.000000  1.000000  1.000000
 FoFCou: FMM=F IPFlag=           0 FMFlag=      100000 FMFlg1=           0
         NFxFlg=           0 DoJE=T BraDBF=F KetDBF=T FulRan=T
         wScrn=  0.000000 ICntrl=     500 IOpCl=  0 I1Cent=   200000004 NGrid=           0
         NMat0=    1 NMatS0=      1 NMatT0=    0 NMatD0=    1 NMtDS0=    0 NMtDT0=    0
 Petite list used in FoFCou.
 Harris En= -269.442837574377    
 JPrj=0 DoOrth=F DoCkMO=F.
 Leave Link  401 at Mon Nov 10 19:41:02 2025, MaxMem=    33554432 cpu:         1.5
 (Enter /opt/programs/gaussian/g09/d_pgi133/l502.exe)
 Closed shell SCF:
 Using DIIS extrapolation, IDIIS=  1040.
 Integral symmetry usage will be decided dynamically.
 IVT=      108587 IEndB=      108587 NGot=    33554432 MDV=    33491898
 LenX=    33491898 LenY=    33462216
 Requested convergence on RMS density matrix=1.00D-08 within 128 cycles.
 Requested convergence on MAX density matrix=1.00D-06.
 Requested convergence on             energy=1.00D-06.
 No special actions if energy rises.
 Fock matrices will be formed incrementally for  20 cycles.

 Cycle   1  Pass 1  IDiag  1:
 FoFJK:  IHMeth= 1 ICntrl=       0 DoSepK=F KAlg= 0 I1Cent=   0 FoldK=F
 IRaf= 970000000 NMat=   1 IRICut=       1 DoRegI=T DoRafI=F ISym2E= 0.
 FoFCou: FMM=F IPFlag=           0 FMFlag=      100000 FMFlg1=           0
         NFxFlg=           0 DoJE=F BraDBF=F KetDBF=F FulRan=T
         wScrn=  0.000000 ICntrl=       0 IOpCl=  0 I1Cent=           0 NGrid=           0
         NMat0=    1 NMatS0=      1 NMatT0=    0 NMatD0=    1 NMtDS0=    0 NMtDT0=    0
 Symmetry not used in FoFCou.
 E= -269.361986689421    
 DIIS: error= 3.07D-02 at cycle   1 NSaved=   1.
 NSaved= 1 IEnMin= 1 EnMin= -269.361986689421     IErMin= 1 ErrMin= 3.07D-02
 ErrMax= 3.07D-02  0.00D+00 EMaxC= 1.00D-01 BMatC= 2.34D-01 BMatP= 2.34D-01
 IDIUse=3 WtCom= 6.93D-01 WtEn= 3.07D-01
 Coeff-Com:  0.100D+01
 Coeff-En:   0.100D+01
 Coeff:      0.100D+01
 Gap=     0.294 Goal=   None    Shift=    0.000
 GapD=    0.294 DampG=1.000 DampE=0.500 DampFc=0.5000 IDamp=-1.
 Damping current iteration by 5.00D-01
 RMSDP=6.79D-03 MaxDP=1.71D-01              OVMax= 1.32D-01

 Cycle   2  Pass 1  IDiag  1:
 RMSU=  3.39D-03    CP:  9.85D-01
 E= -269.443292510059     Delta-E=       -0.081305820639 Rises=F Damp=T
 DIIS: error= 7.75D-03 at cycle   2 NSaved=   2.
 NSaved= 2 IEnMin= 2 EnMin= -269.443292510059     IErMin= 2 ErrMin= 7.75D-03
 ErrMax= 7.75D-03  0.00D+00 EMaxC= 1.00D-01 BMatC= 1.51D-02 BMatP= 2.34D-01
 IDIUse=3 WtCom= 9.23D-01 WtEn= 7.75D-02
 Coeff-Com: -0.413D-01 0.104D+01
 Coeff-En:   0.000D+00 0.100D+01
 Coeff:     -0.381D-01 0.104D+01
 Gap=     0.354 Goal=   None    Shift=    0.000
 RMSDP=2.24D-03 MaxDP=1.02D-01 DE=-8.13D-02 OVMax= 7.38D-02

 Cycle   3  Pass 1  IDiag  1:
 RMSU=  2.07D-03    CP:  9.45D-01  8.30D-01
 E= -269.527024314522     Delta-E=       -0.083731804462 Rises=F Damp=F
 DIIS: error= 4.92D-03 at cycle   3 NSaved=   3.
 NSaved= 3 IEnMin= 3 EnMin= -269.527024314522     IErMin= 3 ErrMin= 4.92D-03
 ErrMax= 4.92D-03  0.00D+00 EMaxC= 1.00D-01 BMatC= 4.02D-03 BMatP= 1.51D-02
 IDIUse=3 WtCom= 9.51D-01 WtEn= 4.92D-02
 Coeff-Com: -0.763D-01 0.320D+00 0.757D+00
 Coeff-En:   0.000D+00 0.000D+00 0.100D+01
 Coeff:     -0.726D-01 0.304D+00 0.769D+00
 Gap=     0.348 Goal=   None    Shift=    0.000
 RMSDP=3.65D-04 MaxDP=8.27D-03 DE=-8.37D-02 OVMax= 1.10D-02

 Cycle   4  Pass 1  IDiag  1:
 RMSU=  3.08D-04    CP:  9.46D-01  8.88D-01  9.96D-01
 E= -269.529048581635     Delta-E=       -0.002024267114 Rises=F Damp=F
 DIIS: error= 2.23D-03 at cycle   4 NSaved=   4.
 NSaved= 4 IEnMin= 4 EnMin= -269.529048581635     IErMin= 4 ErrMin= 2.23D-03
 ErrMax= 2.23D-03  0.00D+00 EMaxC= 1.00D-01 BMatC= 8.51D-04 BMatP= 4.02D-03
 IDIUse=3 WtCom= 9.78D-01 WtEn= 2.23D-02
 Coeff-Com: -0.311D-01 0.809D-01 0.380D+00 0.570D+00
 Coeff-En:   0.000D+00 0.000D+00 0.155D+00 0.845D+00
 Coeff:     -0.304D-01 0.791D-01 0.375D+00 0.576D+00
 Gap=     0.345 Goal=   None    Shift=    0.000
 RMSDP=1.78D-04 MaxDP=3.64D-03 DE=-2.02D-03 OVMax= 4.88D-03

 Cycle   5  Pass 1  IDiag  1:
 RMSU=  1.00D-04    CP:  9.43D-01  8.68D-01  1.01D+00  6.06D-01
 E= -269.529746253830     Delta-E=       -0.000697672195 Rises=F Damp=F
 DIIS: error= 1.87D-04 at cycle   5 NSaved=   5.
 NSaved= 5 IEnMin= 5 EnMin= -269.529746253830     IErMin= 5 ErrMin= 1.87D-04
 ErrMax= 1.87D-04  0.00D+00 EMaxC= 1.00D-01 BMatC= 7.08D-06 BMatP= 8.51D-04
 IDIUse=3 WtCom= 9.98D-01 WtEn= 1.87D-03
 Coeff-Com: -0.314D-02 0.405D-02 0.464D-01 0.128D+00 0.825D+00
 Coeff-En:   0.000D+00 0.000D+00 0.000D+00 0.000D+00 0.100D+01
 Coeff:     -0.313D-02 0.405D-02 0.463D-01 0.128D+00 0.825D+00
 Gap=     0.345 Goal=   None    Shift=    0.000
 RMSDP=2.77D-05 MaxDP=7.43D-04 DE=-6.98D-04 OVMax= 5.81D-04

 Cycle   6  Pass 1  IDiag  1:
 RMSU=  2.02D-05    CP:  9.43D-01  8.65D-01  1.01D+00  6.42D-01  9.26D-01
 E= -269.529752256851     Delta-E=       -0.000006003020 Rises=F Damp=F
 DIIS: error= 3.32D-05 at cycle   6 NSaved=   6.
 NSaved= 6 IEnMin= 6 EnMin= -269.529752256851     IErMin= 6 ErrMin= 3.32D-05
 ErrMax= 3.32D-05  0.00D+00 EMaxC= 1.00D-01 BMatC= 1.90D-07 BMatP= 7.08D-06
 IDIUse=1 WtCom= 1.00D+00 WtEn= 0.00D+00
 Coeff-Com:  0.545D-03-0.174D-02-0.425D-02 0.182D-02 0.997D-01 0.904D+00
 Coeff:      0.545D-03-0.174D-02-0.425D-02 0.182D-02 0.997D-01 0.904D+00
 Gap=     0.345 Goal=   None    Shift=    0.000
 RMSDP=1.07D-05 MaxDP=5.04D-04 DE=-6.00D-06 OVMax= 1.77D-04

 Cycle   7  Pass 1  IDiag  1:
 RMSU=  5.80D-06    CP:  9.43D-01  8.63D-01  1.01D+00  6.45D-01  9.65D-01
                    CP:  1.04D+00
 E= -269.529752439330     Delta-E=       -0.000000182480 Rises=F Damp=F
 DIIS: error= 1.68D-05 at cycle   7 NSaved=   7.
 NSaved= 7 IEnMin= 7 EnMin= -269.529752439330     IErMin= 7 ErrMin= 1.68D-05
 ErrMax= 1.68D-05  0.00D+00 EMaxC= 1.00D-01 BMatC= 6.58D-08 BMatP= 1.90D-07
 IDIUse=1 WtCom= 1.00D+00 WtEn= 0.00D+00
 Coeff-Com:  0.581D-03-0.121D-02-0.670D-02-0.123D-01-0.421D-01 0.387D+00
 Coeff-Com:  0.675D+00
 Coeff:      0.581D-03-0.121D-02-0.670D-02-0.123D-01-0.421D-01 0.387D+00
 Coeff:      0.675D+00
 Gap=     0.345 Goal=   None    Shift=    0.000
 RMSDP=2.43D-06 MaxDP=6.04D-05 DE=-1.82D-07 OVMax= 5.06D-05

 Cycle   8  Pass 1  IDiag  1:
 RMSU=  1.04D-06    CP:  9.43D-01  8.62D-01  1.01D+00  6.46D-01  9.67D-01
                    CP:  1.11D+00  8.81D-01
 E= -269.529752499334     Delta-E=       -0.000000060004 Rises=F Damp=F
 DIIS: error= 2.49D-06 at cycle   8 NSaved=   8.
 NSaved= 8 IEnMin= 8 EnMin= -269.529752499334     IErMin= 8 ErrMin= 2.49D-06
 ErrMax= 2.49D-06  0.00D+00 EMaxC= 1.00D-01 BMatC= 2.23D-09 BMatP= 6.58D-08
 IDIUse=1 WtCom= 1.00D+00 WtEn= 0.00D+00
 Coeff-Com:  0.150D-03-0.295D-03-0.191D-02-0.390D-02-0.183D-01 0.804D-01
 Coeff-Com:  0.213D+00 0.731D+00
 Coeff:      0.150D-03-0.295D-03-0.191D-02-0.390D-02-0.183D-01 0.804D-01
 Coeff:      0.213D+00 0.731D+00
 Gap=     0.345 Goal=   None    Shift=    0.000
 RMSDP=5.99D-07 MaxDP=1.76D-05 DE=-6.00D-08 OVMax= 1.47D-05

 Cycle   9  Pass 1  IDiag  1:
 RMSU=  3.62D-07    CP:  9.43D-01  8.62D-01  1.01D+00  6.46D-01  9.68D-01
                    CP:  1.12D+00  9.21D-01  1.02D+00
 E= -269.529752500945     Delta-E=       -0.000000001611 Rises=F Damp=F
 DIIS: error= 1.19D-06 at cycle   9 NSaved=   9.
 NSaved= 9 IEnMin= 9 EnMin= -269.529752500945     IErMin= 9 ErrMin= 1.19D-06
 ErrMax= 1.19D-06  0.00D+00 EMaxC= 1.00D-01 BMatC= 4.19D-10 BMatP= 2.23D-09
 IDIUse=1 WtCom= 1.00D+00 WtEn= 0.00D+00
 Coeff-Com: -0.809D-06 0.584D-05-0.114D-03-0.366D-03-0.346D-02-0.595D-02
 Coeff-Com:  0.187D-01 0.315D+00 0.676D+00
 Coeff:     -0.809D-06 0.584D-05-0.114D-03-0.366D-03-0.346D-02-0.595D-02
 Coeff:      0.187D-01 0.315D+00 0.676D+00
 Gap=     0.345 Goal=   None    Shift=    0.000
 RMSDP=1.48D-07 MaxDP=3.46D-06 DE=-1.61D-09 OVMax= 4.31D-06

 Cycle  10  Pass 1  IDiag  1:
 RMSU=  9.69D-08    CP:  9.43D-01  8.62D-01  1.01D+00  6.46D-01  9.67D-01
                    CP:  1.12D+00  9.26D-01  1.10D+00  9.11D-01
 E= -269.529752501263     Delta-E=       -0.000000000318 Rises=F Damp=F
 DIIS: error= 3.22D-07 at cycle  10 NSaved=  10.
 NSaved=10 IEnMin=10 EnMin= -269.529752501263     IErMin=10 ErrMin= 3.22D-07
 ErrMax= 3.22D-07  0.00D+00 EMaxC= 1.00D-01 BMatC= 2.39D-11 BMatP= 4.19D-10
 IDIUse=1 WtCom= 1.00D+00 WtEn= 0.00D+00
 Coeff-Com: -0.152D-04 0.315D-04 0.150D-03 0.269D-03 0.775D-03-0.961D-02
 Coeff-Com: -0.169D-01 0.171D-01 0.216D+00 0.793D+00
 Coeff:     -0.152D-04 0.315D-04 0.150D-03 0.269D-03 0.775D-03-0.961D-02
 Coeff:     -0.169D-01 0.171D-01 0.216D+00 0.793D+00
 Gap=     0.345 Goal=   None    Shift=    0.000
 RMSDP=6.32D-08 MaxDP=2.29D-06 DE=-3.18D-10 OVMax= 1.72D-06

 Cycle  11  Pass 1  IDiag  1:
 RMSU=  2.88D-08    CP:  9.43D-01  8.62D-01  1.01D+00  6.46D-01  9.67D-01
                    CP:  1.12D+00  9.34D-01  1.12D+00  9.61D-01  9.56D-01
 E= -269.529752501289     Delta-E=       -0.000000000026 Rises=F Damp=F
 DIIS: error= 5.97D-08 at cycle  11 NSaved=  11.
 NSaved=11 IEnMin=11 EnMin= -269.529752501289     IErMin=11 ErrMin= 5.97D-08
 ErrMax= 5.97D-08  0.00D+00 EMaxC= 1.00D-01 BMatC= 5.02D-13 BMatP= 2.39D-11
 IDIUse=1 WtCom= 1.00D+00 WtEn= 0.00D+00
 Coeff-Com:  0.643D-07 0.219D-06 0.908D-05 0.132D-04 0.116D-03 0.783D-04
 Coeff-Com: -0.142D-02-0.139D-01-0.194D-01 0.297D-01 0.100D+01
 Coeff:      0.643D-07 0.219D-06 0.908D-05 0.132D-04 0.116D-03 0.783D-04
 Coeff:     -0.142D-02-0.139D-01-0.194D-01 0.297D-01 0.100D+01
 Gap=     0.345 Goal=   None    Shift=    0.000
 RMSDP=1.35D-08 MaxDP=4.21D-07 DE=-2.59D-11 OVMax= 5.71D-07

 Cycle  12  Pass 1  IDiag  1:
 RMSU=  7.27D-09    CP:  9.43D-01  8.62D-01  1.01D+00  6.46D-01  9.67D-01
                    CP:  1.12D+00  9.34D-01  1.12D+00  9.70D-01  1.01D+00
                    CP:  1.19D+00
 E= -269.529752501292     Delta-E=       -0.000000000003 Rises=F Damp=F
 DIIS: error= 2.11D-08 at cycle  12 NSaved=  12.
 NSaved=12 IEnMin=12 EnMin= -269.529752501292     IErMin=12 ErrMin= 2.11D-08
 ErrMax= 2.11D-08  0.00D+00 EMaxC= 1.00D-01 BMatC= 1.03D-13 BMatP= 5.02D-13
 IDIUse=1 WtCom= 1.00D+00 WtEn= 0.00D+00
 Coeff-Com:  0.979D-06-0.186D-05-0.556D-05-0.116D-04-0.824D-05 0.624D-03
 Coeff-Com:  0.537D-03-0.633D-02-0.203D-01-0.367D-01 0.373D+00 0.690D+00
 Coeff:      0.979D-06-0.186D-05-0.556D-05-0.116D-04-0.824D-05 0.624D-03
 Coeff:      0.537D-03-0.633D-02-0.203D-01-0.367D-01 0.373D+00 0.690D+00
 Gap=     0.345 Goal=   None    Shift=    0.000
 RMSDP=3.03D-09 MaxDP=8.01D-08 DE=-3.01D-12 OVMax= 1.31D-07

 SCF Done:  E(RM062X) =  -269.529752501     A.U. after   12 cycles
            NFock= 12  Conv=0.30D-08     -V/T= 2.0039
 KE= 2.684931907619D+02 PE=-1.000584287786D+03 EE= 2.780413072891D+02
 Leave Link  502 at Mon Nov 10 19:41:26 2025, MaxMem=    33554432 cpu:        24.5
 (Enter /opt/programs/gaussian/g09/d_pgi133/l601.exe)
 Copying SCF densities to generalized density rwf, IOpCl= 0 IROHF=0.

 **********************************************************************

            Population analysis using the SCF density.

 **********************************************************************

 Orbital symmetries:
       Occupied  (A) (A) (A) (A) (A) (A) (A) (A) (A) (A) (A) (A)
                 (A) (A) (A) (A) (A) (A) (A) (A) (A)
       Virtual   (A) (A) (A) (A) (A) (A) (A) (A) (A) (A) (A) (A)
                 (A) (A) (A) (A) (A) (A) (A) (A) (A) (A) (A) (A)
                 (A) (A) (A) (A) (A) (A) (A) (A) (A) (A) (A) (A)
                 (A) (A) (A) (A) (A) (A) (A) (A) (A) (A) (A) (A)
                 (A) (A) (A) (A) (A) (A) (A) (A) (A) (A) (A) (A)
                 (A) (A) (A) (A) (A) (A) (A) (A) (A) (A) (A) (A)
                 (A) (A) (A) (A) (A) (A) (A) (A) (A) (A) (A) (A)
                 (A) (A) (A) (A) (A) (A) (A) (A) (A) (A) (A) (A)
                 (A) (A) (A) (A) (A) (A) (A) (A) (A) (A) (A) (A)
                 (A) (A) (A) (A) (A) (A) (A) (A) (A) (A) (A) (A)
                 (A) (A) (A) (A) (A) (A) (A) (A) (A) (A) (A) (A)
                 (A) (A) (A) (A) (A) (A) (A) (A) (A) (A) (A) (A)
                 (A)
 The electronic state is 1-A.
 Alpha  occ. eigenvalues --  -19.62961 -19.62499 -10.59411 -10.58947 -10.53785
 Alpha  occ. eigenvalues --   -1.15129  -1.14655  -0.88017  -0.76357  -0.68907
 Alpha  occ. eigenvalues --   -0.60743  -0.58059  -0.55272  -0.51598  -0.49397
 Alpha  occ. eigenvalues --   -0.46655  -0.43728  -0.40958  -0.39483  -0.35832
 Alpha  occ. eigenvalues --   -0.35242
 Alpha virt. eigenvalues --   -0.00703   0.00182   0.01407   0.01978   0.03513
 Alpha virt. eigenvalues --    0.04619   0.05414   0.05623   0.07066   0.09470
 Alpha virt. eigenvalues --    0.10187   0.11571   0.12387   0.12734   0.13120
 Alpha virt. eigenvalues --    0.13367   0.13578   0.14860   0.15327   0.17152
 Alpha virt. eigenvalues --    0.20009   0.21188   0.21696   0.22663   0.23195
 Alpha virt. eigenvalues --    0.23851   0.24205   0.26043   0.26771   0.29286
 Alpha virt. eigenvalues --    0.30665   0.30902   0.32008   0.32929   0.34210
 Alpha virt. eigenvalues --    0.34569   0.34841   0.39245   0.40336   0.41046
 Alpha virt. eigenvalues --    0.46115   0.46985   0.47993   0.54679   0.57414
 Alpha virt. eigenvalues --    0.58864   0.61431   0.63835   0.66933   0.68049
 Alpha virt. eigenvalues --    0.69136   0.69939   0.71095   0.73474   0.76159
 Alpha virt. eigenvalues --    0.78184   0.79025   0.92535   0.97013   1.00625
 Alpha virt. eigenvalues --    1.02595   1.03916   1.13018   1.15209   1.19722
 Alpha virt. eigenvalues --    1.20427   1.24254   1.28133   1.30381   1.31988
 Alpha virt. eigenvalues --    1.35402   1.41273   1.45502   1.48373   1.54294
 Alpha virt. eigenvalues --    1.55793   1.58715   1.59110   1.60758   1.62373
 Alpha virt. eigenvalues --    1.63406   1.67992   1.68529   1.71013   1.73984
 Alpha virt. eigenvalues --    1.75505   1.78921   1.81105   1.84134   1.90820
 Alpha virt. eigenvalues --    1.94167   2.03446   2.05433   2.10410   2.11725
 Alpha virt. eigenvalues --    2.13825   2.16309   2.20220   2.29418   2.34895
 Alpha virt. eigenvalues --    2.37617   2.48852   2.50066   2.51370   2.52503
 Alpha virt. eigenvalues --    2.54882   2.58905   2.62443   2.63801   2.66241
 Alpha virt. eigenvalues --    2.72200   2.78810   2.80351   2.89751   2.93337
 Alpha virt. eigenvalues --    2.96106   3.03119   3.12427   3.16212   3.18649
 Alpha virt. eigenvalues --    3.25385   3.26689   3.32036   3.35828   3.47949
 Alpha virt. eigenvalues --    3.78234   3.83093   3.87457   3.91930   3.93593
 Alpha virt. eigenvalues --    4.03391   4.05048   4.17166   4.34163   5.16646
 Alpha virt. eigenvalues --    5.19583   5.49125   5.50447   5.73093   5.74896
 Alpha virt. eigenvalues --   23.89263  23.92089  23.97503  50.02103  50.02872
          Condensed to atoms (all electrons):
               1          2          3          4          5          6
     1  C    5.668878   0.409794   0.353940  -0.142601  -0.018034  -0.063539
     2  H    0.409794   0.682059  -0.116913  -0.056661   0.030971  -0.035965
     3  H    0.353940  -0.116913   0.679542   0.013905  -0.042454   0.024251
     4  C   -0.142601  -0.056661   0.013905   5.938936   0.358633   0.480436
     5  H   -0.018034   0.030971  -0.042454   0.358633   0.633575  -0.086505
     6  H   -0.063539  -0.035965   0.024251   0.480436  -0.086505   0.546775
     7  C   -0.046233  -0.004052  -0.016374  -0.137130   0.011379  -0.070346
     8  H   -0.012685  -0.021765   0.019821   0.086171  -0.054112   0.027834
     9  H   -0.011715   0.020631  -0.013620  -0.051400   0.027548  -0.034337
    10  O    0.207822  -0.057537  -0.053878  -0.182465   0.013376   0.009174
    11  H    0.030176  -0.004546  -0.006764  -0.009615  -0.001268  -0.000395
    12  O    0.034405  -0.002409   0.002038  -0.106104  -0.028602   0.019795
    13  H    0.004129  -0.000779  -0.000247   0.000120   0.013652  -0.005456
               7          8          9         10         11         12
     1  C   -0.046233  -0.012685  -0.011715   0.207822   0.030176   0.034405
     2  H   -0.004052  -0.021765   0.020631  -0.057537  -0.004546  -0.002409
     3  H   -0.016374   0.019821  -0.013620  -0.053878  -0.006764   0.002038
     4  C   -0.137130   0.086171  -0.051400  -0.182465  -0.009615  -0.106104
     5  H    0.011379  -0.054112   0.027548   0.013376  -0.001268  -0.028602
     6  H   -0.070346   0.027834  -0.034337   0.009174  -0.000395   0.019795
     7  C    5.660696   0.238182   0.451480   0.051339  -0.005556   0.246631
     8  H    0.238182   0.713336  -0.105494  -0.002449   0.000762  -0.019100
     9  H    0.451480  -0.105494   0.616305  -0.003077  -0.000160  -0.095349
    10  O    0.051339  -0.002449  -0.003077   8.065363   0.223980  -0.001271
    11  H   -0.005556   0.000762  -0.000160   0.223980   0.516705  -0.000071
    12  O    0.246631  -0.019100  -0.095349  -0.001271  -0.000071   7.951095
    13  H   -0.034896  -0.020686   0.020653  -0.000248  -0.000075   0.255728
              13
     1  C    0.004129
     2  H   -0.000779
     3  H   -0.000247
     4  C    0.000120
     5  H    0.013652
     6  H   -0.005456
     7  C   -0.034896
     8  H   -0.020686
     9  H    0.020653
    10  O   -0.000248
    11  H   -0.000075
    12  O    0.255728
    13  H    0.519099
 Mulliken charges:
               1
     1  C   -0.414336
     2  H    0.157171
     3  H    0.156754
     4  C   -0.192224
     5  H    0.141841
     6  H    0.188278
     7  C   -0.345121
     8  H    0.150185
     9  H    0.178535
    10  O   -0.270130
    11  H    0.256828
    12  O   -0.256786
    13  H    0.249006
 Sum of Mulliken charges =   0.00000
 Mulliken charges with hydrogens summed into heavy atoms:
               1
     1  C   -0.100411
     4  C    0.137895
     7  C   -0.016401
    10  O   -0.013302
    12  O   -0.007780
 Electronic spatial extent (au):  <R**2>=            625.5319
 Charge=              0.0000 electrons
 Dipole moment (field-independent basis, Debye):
    X=              1.4691    Y=              1.5896    Z=              1.3921  Tot=              2.5735
 Quadrupole moment (field-independent basis, Debye-Ang):
   XX=            -34.4694   YY=            -31.7283   ZZ=            -31.1638
   XY=              5.4471   XZ=             -3.2734   YZ=             -1.6125
 Traceless Quadrupole moment (field-independent basis, Debye-Ang):
   XX=             -2.0155   YY=              0.7256   ZZ=              1.2900
   XY=              5.4471   XZ=             -3.2734   YZ=             -1.6125
 Octapole moment (field-independent basis, Debye-Ang**2):
  XXX=             40.3231  YYY=             -2.5864  ZZZ=              0.7048  XYY=             -4.7151
  XXY=              7.2342  XXZ=             10.1658  XZZ=             -2.8730  YZZ=             -0.5209
  YYZ=              0.9552  XYZ=              3.7759
 Hexadecapole moment (field-independent basis, Debye-Ang**3):
 XXXX=           -570.0643 YYYY=            -98.2246 ZZZZ=            -54.3533 XXXY=             41.9817
 XXXZ=            -23.9560 YYYX=              5.6283 YYYZ=             -2.3910 ZZZX=             -2.5044
 ZZZY=             -1.4844 XXYY=           -116.1416 XXZZ=           -109.8279 YYZZ=            -22.6727
 XXYZ=             -9.9862 YYXZ=             -3.4366 ZZXY=              2.8012
 N-N= 1.845200372333D+02 E-N=-1.000584288400D+03  KE= 2.684931907619D+02
 No NMR shielding tensors so no spin-rotation constants.
 Leave Link  601 at Mon Nov 10 19:41:26 2025, MaxMem=    33554432 cpu:         0.0
 (Enter /opt/programs/gaussian/g09/d_pgi133/l9999.exe)
 1\1\GINC-EXADE5\SP\RM062X\6-311++G(d,p)\C3H8O2\APINTO\10-Nov-2025\0\\#
 p M062X/6-311++G(d,p)\\SP\\0,1\C,0,1.375222,0.094984,0.259977\H,0,1.43
 7366,0.735589,1.155588\H,0,1.480965,-0.948412,0.600631\C,0,0.02173,0.2
 88345,-0.411925\H,0,-0.039401,-0.385858,-1.27707\H,0,-0.040587,1.31106
 9,-0.79932\C,0,-1.156884,0.036003,0.529245\H,0,-1.098179,-0.983247,0.9
 47313\H,0,-1.11931,0.729795,1.376254\O,0,2.383599,0.435418,-0.684439\H
 ,0,3.242636,0.310685,-0.261815\O,0,-2.415017,0.263405,-0.092691\H,0,-2
 .484515,-0.346482,-0.839013\\Version=ES64L-G09RevD.01\State=1-A\HF=-26
 9.5297525\RMSD=3.034e-09\Dipole=0.6469036,-0.6561829,0.4196043\Quadrup
 ole=-0.7519774,0.4952043,0.2567731,1.4485778,4.6353542,1.2106728\PG=C0
 1 [X(C3H8O2)]\\@


 THE WISE MAN HAS THE POWER TO REASON AWAY
 WHAT A FOOL BELIEVES.
                     - DOOBIE BROTHERS
 Job cpu time:       0 days  0 hours  0 minutes 26.1 seconds.
 File lengths (MBytes):  RWF=     16 Int=      0 D2E=      0 Chk=      2 Scr=      1
 Normal termination of Gaussian 09 at Mon Nov 10 19:41:26 2025.
