 Entering Gaussian System, Link 0=g09
 Input=xax.com
 Output=xax.log
 Initial command:
 /opt/programs/gaussian/g09/d_pgi133/l1.exe "/scratch/users/apinto/lixo/Gau-1266780.inp" -scrdir="/scratch/users/apinto/lixo/"
 Entering Link 1 = /opt/programs/gaussian/g09/d_pgi133/l1.exe PID=   1266782.
  
 Copyright (c) 1988,1990,1992,1993,1995,1998,2003,2009,2013,
            Gaussian, Inc.  All Rights Reserved.
  
 This is part of the Gaussian(R) 09 program.  It is based on
 the Gaussian(R) 03 system (copyright 2003, Gaussian, Inc.),
 the Gaussian(R) 98 system (copyright 1998, Gaussian, Inc.),
 the Gaussian(R) 94 system (copyright 1995, Gaussian, Inc.),
 the Gaussian 92(TM) system (copyright 1992, Gaussian, Inc.),
 the Gaussian 90(TM) system (copyright 1990, Gaussian, Inc.),
 the Gaussian 88(TM) system (copyright 1988, Gaussian, Inc.),
 the Gaussian 86(TM) system (copyright 1986, Carnegie Mellon
 University), and the Gaussian 82(TM) system (copyright 1983,
 Carnegie Mellon University). Gaussian is a federally registered
 trademark of Gaussian, Inc.
  
 This software contains proprietary and confidential information,
 including trade secrets, belonging to Gaussian, Inc.
  
 This software is provided under written license and may be
 used, copied, transmitted, or stored only in accord with that
 written license.
  
 The following legend is applicable only to US Government
 contracts under FAR:
  
                    RESTRICTED RIGHTS LEGEND
  
 Use, reproduction and disclosure by the US Government is
 subject to restrictions as set forth in subparagraphs (a)
 and (c) of the Commercial Computer Software - Restricted
 Rights clause in FAR 52.227-19.
  
 Gaussian, Inc.
 340 Quinnipiac St., Bldg. 40, Wallingford CT 06492
  
  
 ---------------------------------------------------------------
 Warning -- This program may not be used in any manner that
 competes with the business of Gaussian, Inc. or will provide
 assistance to any competitor of Gaussian, Inc.  The licensee
 of this program is prohibited from giving any competitor of
 Gaussian, Inc. access to this program.  By using this program,
 the user acknowledges that Gaussian, Inc. is engaged in the
 business of creating and licensing software in the field of
 computational chemistry and represents and warrants to the
 licensee that it is not a competitor of Gaussian, Inc. and that
 it will not use this program in any manner prohibited above.
 ---------------------------------------------------------------
  

 Cite this work as:
 Gaussian 09, Revision D.01,
 M. J. Frisch, G. W. Trucks, H. B. Schlegel, G. E. Scuseria, 
 M. A. Robb, J. R. Cheeseman, G. Scalmani, V. Barone, B. Mennucci, 
 G. A. Petersson, H. Nakatsuji, M. Caricato, X. Li, H. P. Hratchian, 
 A. F. Izmaylov, J. Bloino, G. Zheng, J. L. Sonnenberg, M. Hada, 
 M. Ehara, K. Toyota, R. Fukuda, J. Hasegawa, M. Ishida, T. Nakajima, 
 Y. Honda, O. Kitao, H. Nakai, T. Vreven, J. A. Montgomery, Jr., 
 J. E. Peralta, F. Ogliaro, M. Bearpark, J. J. Heyd, E. Brothers, 
 K. N. Kudin, V. N. Staroverov, T. Keith, R. Kobayashi, J. Normand, 
 K. Raghavachari, A. Rendell, J. C. Burant, S. S. Iyengar, J. Tomasi, 
 M. Cossi, N. Rega, J. M. Millam, M. Klene, J. E. Knox, J. B. Cross, 
 V. Bakken, C. Adamo, J. Jaramillo, R. Gomperts, R. E. Stratmann, 
 O. Yazyev, A. J. Austin, R. Cammi, C. Pomelli, J. W. Ochterski, 
 R. L. Martin, K. Morokuma, V. G. Zakrzewski, G. A. Voth, 
 P. Salvador, J. J. Dannenberg, S. Dapprich, A. D. Daniels, 
 O. Farkas, J. B. Foresman, J. V. Ortiz, J. Cioslowski, 
 and D. J. Fox, Gaussian, Inc., Wallingford CT, 2013.
 
 ******************************************
 Gaussian 09:  ES64L-G09RevD.01 24-Apr-2013
                10-Nov-2025 
 ******************************************
 ----------------------
 #p M062X/6-311++G(d,p)
 ----------------------
 1/38=1/1;
 2/12=2,17=6,18=5,40=1/2;
 3/5=4,6=6,7=1111,11=2,16=1,25=1,30=1,74=-55/1,2,3;
 4//1;
 5/5=2,38=5/2;
 6/7=2,8=2,9=2,10=2,28=1/1;
 99/5=1,9=1/99;
 Leave Link    1 at Mon Nov 10 19:42:19 2025, MaxMem=           0 cpu:         0.0
 (Enter /opt/programs/gaussian/g09/d_pgi133/l101.exe)
 --
 SP
 --
 Symbolic Z-matrix:
 Charge =  0 Multiplicity = 1
 C                     1.37996   0.02557   0.23649 
 H                     1.36054   0.49732   1.23399 
 H                     1.58588  -1.04546   0.39162 
 C                     0.02436   0.21587  -0.44006 
 H                    -0.08466  -0.50078  -1.26474 
 H                     0.00731   1.21732  -0.88366 
 C                    -1.15254   0.09459   0.52916 
 H                    -1.1328   -0.8833    1.04012 
 H                    -1.07189   0.86107   1.3074 
 O                     2.36899   0.63478  -0.58638 
 H                     3.23264   0.46834  -0.18787 
 O                    -2.40824   0.31856  -0.09876 
 H                    -2.52192  -0.3626   -0.77458 
 
 NAtoms=     13 NQM=       13 NQMF=       0 NMMI=      0 NMMIF=      0
                NMic=       0 NMicF=      0.
                    Isotopes and Nuclear Properties:
 (Nuclear quadrupole moments (NQMom) in fm**2, nuclear magnetic moments (NMagM)
  in nuclear magnetons)

  Atom         1           2           3           4           5           6           7           8           9          10
 IAtWgt=          12           1           1          12           1           1          12           1           1          16
 AtmWgt=  12.0000000   1.0078250   1.0078250  12.0000000   1.0078250   1.0078250  12.0000000   1.0078250   1.0078250  15.9949146
 NucSpn=           0           1           1           0           1           1           0           1           1           0
 AtZEff=   0.0000000   0.0000000   0.0000000   0.0000000   0.0000000   0.0000000   0.0000000   0.0000000   0.0000000   0.0000000
 NQMom=    0.0000000   0.0000000   0.0000000   0.0000000   0.0000000   0.0000000   0.0000000   0.0000000   0.0000000   0.0000000
 NMagM=    0.0000000   2.7928460   2.7928460   0.0000000   2.7928460   2.7928460   0.0000000   2.7928460   2.7928460   0.0000000
 AtZNuc=   6.0000000   1.0000000   1.0000000   6.0000000   1.0000000   1.0000000   6.0000000   1.0000000   1.0000000   8.0000000

  Atom        11          12          13
 IAtWgt=           1          16           1
 AtmWgt=   1.0078250  15.9949146   1.0078250
 NucSpn=           1           0           1
 AtZEff=   0.0000000   0.0000000   0.0000000
 NQMom=    0.0000000   0.0000000   0.0000000
 NMagM=    2.7928460   0.0000000   2.7928460
 AtZNuc=   1.0000000   8.0000000   1.0000000
 Leave Link  101 at Mon Nov 10 19:42:19 2025, MaxMem=    33554432 cpu:         0.0
 (Enter /opt/programs/gaussian/g09/d_pgi133/l202.exe)
                          Input orientation:                          
 ---------------------------------------------------------------------
 Center     Atomic      Atomic             Coordinates (Angstroms)
 Number     Number       Type             X           Y           Z
 ---------------------------------------------------------------------
      1          6           0        1.379964    0.025568    0.236489
      2          1           0        1.360539    0.497321    1.233987
      3          1           0        1.585884   -1.045459    0.391623
      4          6           0        0.024355    0.215872   -0.440063
      5          1           0       -0.084662   -0.500776   -1.264737
      6          1           0        0.007307    1.217325   -0.883656
      7          6           0       -1.152539    0.094590    0.529157
      8          1           0       -1.132803   -0.883302    1.040121
      9          1           0       -1.071893    0.861071    1.307402
     10          8           0        2.368988    0.634779   -0.586380
     11          1           0        3.232643    0.468338   -0.187873
     12          8           0       -2.408244    0.318562   -0.098760
     13          1           0       -2.521915   -0.362599   -0.774575
 ---------------------------------------------------------------------
                    Distance matrix (angstroms):
                    1          2          3          4          5
     1  C    0.000000
     2  H    1.103599   0.000000
     3  H    1.101621   1.772153   0.000000
     4  C    1.526962   2.160334   2.172793   0.000000
     5  H    2.162371   3.054247   2.414732   1.097978   0.000000
     6  H    2.135228   2.614202   3.039479   1.095433   1.762258
     7  C    2.550292   2.640935   2.969442   1.529437   2.170916
     8  H    2.790317   2.856652   2.799661   2.176728   2.560722
     9  H    2.802949   2.460575   3.396658   2.161406   3.073296
    10  O    1.423524   2.085569   2.095935   2.386251   2.787481
    11  H    1.951550   2.351021   2.310674   3.228072   3.619852
    12  O    3.814283   4.001487   4.249010   2.458571   2.725775
    13  H    4.049393   4.455023   4.324388   2.632493   2.489890
                    6          7          8          9         10
     6  H    0.000000
     7  C    2.145185   0.000000
     8  H    3.068127   1.103516   0.000000
     9  H    2.468264   1.095291   1.765782   0.000000
    10  O    2.450565   3.733280   4.148809   3.934117   0.000000
    11  H    3.383473   4.459108   4.732021   4.573742   0.965614
    12  O    2.694202   1.421703   2.090042   2.014309   4.812454
    13  H    2.984128   1.945233   2.343904   2.816835   4.995109
                   11         12         13
    11  H    0.000000
    12  O    5.643579   0.000000
    13  H    5.843767   0.966244   0.000000
 Stoichiometry    C3H8O2
 Framework group  C1[X(C3H8O2)]
 Deg. of freedom    33
 Full point group                 C1      NOp   1
 Largest Abelian subgroup         C1      NOp   1
 Largest concise Abelian subgroup C1      NOp   1
                         Standard orientation:                         
 ---------------------------------------------------------------------
 Center     Atomic      Atomic             Coordinates (Angstroms)
 Number     Number       Type             X           Y           Z
 ---------------------------------------------------------------------
      1          6           0        1.277923    0.470168    0.137802
      2          1           0        1.203317    1.266858   -0.622231
      3          1           0        1.415106    0.966892    1.111463
      4          6           0       -0.007648   -0.353795    0.135458
      5          1           0       -0.087375   -0.923039    1.070958
      6          1           0        0.062624   -1.084700   -0.677446
      7          6           0       -1.262892    0.492859   -0.080680
      8          1           0       -1.334651    1.280505    0.688872
      9          1           0       -1.205121    1.000145   -1.049693
     10          8           0        2.359703   -0.405995   -0.159702
     11          1           0        3.178996    0.102129   -0.105127
     12          8           0       -2.451155   -0.286277   -0.127761
     13          1           0       -2.545570   -0.726003    0.727431
 ---------------------------------------------------------------------
 Rotational constants (GHZ):     19.9618987      1.9904018      1.8986734
 Leave Link  202 at Mon Nov 10 19:42:19 2025, MaxMem=    33554432 cpu:         0.0
 (Enter /opt/programs/gaussian/g09/d_pgi133/l301.exe)
 Standard basis: 6-311++G(d,p) (5D, 7F)
 Ernie: Thresh=  0.10000D-02 Tol=  0.10000D-05 Strict=F.
 There are   171 symmetry adapted cartesian basis functions of A   symmetry.
 There are   166 symmetry adapted basis functions of A   symmetry.
   166 basis functions,   252 primitive gaussians,   171 cartesian basis functions
    21 alpha electrons       21 beta electrons
       nuclear repulsion energy       184.5161218197 Hartrees.
 IExCor= 4336 DFT=T Ex+Corr=M062X ExCW=0 ScaHFX=  0.540000
 ScaDFX=  1.000000  1.000000  1.000000  1.000000 ScalE2=  1.000000  1.000000
 IRadAn=      0 IRanWt=     -1 IRanGd=            0 ICorTp=0 IEmpDi=  4
 NAtoms=   13 NActive=   13 NUniq=   13 SFac= 1.00D+00 NAtFMM=   60 NAOKFM=F Big=F
 Integral buffers will be    131072 words long.
 Raffenetti 2 integral format.
 Two-electron integral symmetry is turned on.
 Leave Link  301 at Mon Nov 10 19:42:19 2025, MaxMem=    33554432 cpu:         0.0
 (Enter /opt/programs/gaussian/g09/d_pgi133/l302.exe)
 NPDir=0 NMtPBC=     1 NCelOv=     1 NCel=       1 NClECP=     1 NCelD=      1
         NCelK=      1 NCelE2=     1 NClLst=     1 CellRange=     0.0.
 One-electron integrals computed using PRISM.
 NBasis=   166 RedAO= T EigKep=  4.31D-05  NBF=   166
 NBsUse=   166 1.00D-06 EigRej= -1.00D+00 NBFU=   166
 Precomputing XC quadrature grid using
 IXCGrd= 4 IRadAn=           0 IRanWt=          -1 IRanGd=           0 AccXCQ= 0.00D+00.
 Generated NRdTot=       0 NPtTot=           0 NUsed=           0 NTot=          32
 NSgBfM=   171   171   171   171   171 MxSgAt=    13 MxSgA2=    13.
 Leave Link  302 at Mon Nov 10 19:42:19 2025, MaxMem=    33554432 cpu:         0.1
 (Enter /opt/programs/gaussian/g09/d_pgi133/l303.exe)
 DipDrv:  MaxL=1.
 Leave Link  303 at Mon Nov 10 19:42:19 2025, MaxMem=    33554432 cpu:         0.0
 (Enter /opt/programs/gaussian/g09/d_pgi133/l401.exe)
 ExpMin= 3.60D-02 ExpMax= 8.59D+03 ExpMxC= 1.30D+03 IAcc=3 IRadAn=         5 AccDes= 0.00D+00
 Harris functional with IExCor= 1009 and IRadAn=       5 diagonalized for initial guess.
 HarFok:  IExCor= 1009 AccDes= 0.00D+00 IRadAn=         5 IDoV= 1 UseB2=F ITyADJ=14
 ICtDFT=  3500011 ScaDFX=  1.000000  1.000000  1.000000  1.000000
 FoFCou: FMM=F IPFlag=           0 FMFlag=      100000 FMFlg1=           0
         NFxFlg=           0 DoJE=T BraDBF=F KetDBF=T FulRan=T
         wScrn=  0.000000 ICntrl=     500 IOpCl=  0 I1Cent=   200000004 NGrid=           0
         NMat0=    1 NMatS0=      1 NMatT0=    0 NMatD0=    1 NMtDS0=    0 NMtDT0=    0
 Petite list used in FoFCou.
 Harris En= -269.441852975408    
 JPrj=0 DoOrth=F DoCkMO=F.
 Leave Link  401 at Mon Nov 10 19:42:20 2025, MaxMem=    33554432 cpu:         1.5
 (Enter /opt/programs/gaussian/g09/d_pgi133/l502.exe)
 Closed shell SCF:
 Using DIIS extrapolation, IDIIS=  1040.
 Integral symmetry usage will be decided dynamically.
 IVT=      108587 IEndB=      108587 NGot=    33554432 MDV=    33491898
 LenX=    33491898 LenY=    33462216
 Requested convergence on RMS density matrix=1.00D-08 within 128 cycles.
 Requested convergence on MAX density matrix=1.00D-06.
 Requested convergence on             energy=1.00D-06.
 No special actions if energy rises.
 Fock matrices will be formed incrementally for  20 cycles.

 Cycle   1  Pass 1  IDiag  1:
 FoFJK:  IHMeth= 1 ICntrl=       0 DoSepK=F KAlg= 0 I1Cent=   0 FoldK=F
 IRaf= 970000000 NMat=   1 IRICut=       1 DoRegI=T DoRafI=F ISym2E= 0.
 FoFCou: FMM=F IPFlag=           0 FMFlag=      100000 FMFlg1=           0
         NFxFlg=           0 DoJE=F BraDBF=F KetDBF=F FulRan=T
         wScrn=  0.000000 ICntrl=       0 IOpCl=  0 I1Cent=           0 NGrid=           0
         NMat0=    1 NMatS0=      1 NMatT0=    0 NMatD0=    1 NMtDS0=    0 NMtDT0=    0
 Symmetry not used in FoFCou.
 E= -269.360706916317    
 DIIS: error= 2.91D-02 at cycle   1 NSaved=   1.
 NSaved= 1 IEnMin= 1 EnMin= -269.360706916317     IErMin= 1 ErrMin= 2.91D-02
 ErrMax= 2.91D-02  0.00D+00 EMaxC= 1.00D-01 BMatC= 2.34D-01 BMatP= 2.34D-01
 IDIUse=3 WtCom= 7.09D-01 WtEn= 2.91D-01
 Coeff-Com:  0.100D+01
 Coeff-En:   0.100D+01
 Coeff:      0.100D+01
 Gap=     0.291 Goal=   None    Shift=    0.000
 GapD=    0.291 DampG=1.000 DampE=0.500 DampFc=0.5000 IDamp=-1.
 Damping current iteration by 5.00D-01
 RMSDP=6.88D-03 MaxDP=2.03D-01              OVMax= 1.31D-01

 Cycle   2  Pass 1  IDiag  1:
 RMSU=  3.43D-03    CP:  9.83D-01
 E= -269.441920641385     Delta-E=       -0.081213725068 Rises=F Damp=T
 DIIS: error= 7.30D-03 at cycle   2 NSaved=   2.
 NSaved= 2 IEnMin= 2 EnMin= -269.441920641385     IErMin= 2 ErrMin= 7.30D-03
 ErrMax= 7.30D-03  0.00D+00 EMaxC= 1.00D-01 BMatC= 1.51D-02 BMatP= 2.34D-01
 IDIUse=3 WtCom= 9.27D-01 WtEn= 7.30D-02
 Coeff-Com: -0.400D-01 0.104D+01
 Coeff-En:   0.000D+00 0.100D+01
 Coeff:     -0.371D-01 0.104D+01
 Gap=     0.353 Goal=   None    Shift=    0.000
 RMSDP=2.30D-03 MaxDP=1.17D-01 DE=-8.12D-02 OVMax= 7.40D-02

 Cycle   3  Pass 1  IDiag  1:
 RMSU=  2.11D-03    CP:  9.43D-01  8.00D-01
 E= -269.525796851348     Delta-E=       -0.083876209963 Rises=F Damp=F
 DIIS: error= 4.73D-03 at cycle   3 NSaved=   3.
 NSaved= 3 IEnMin= 3 EnMin= -269.525796851348     IErMin= 3 ErrMin= 4.73D-03
 ErrMax= 4.73D-03  0.00D+00 EMaxC= 1.00D-01 BMatC= 4.08D-03 BMatP= 1.51D-02
 IDIUse=3 WtCom= 9.53D-01 WtEn= 4.73D-02
 Coeff-Com: -0.766D-01 0.321D+00 0.756D+00
 Coeff-En:   0.000D+00 0.000D+00 0.100D+01
 Coeff:     -0.730D-01 0.306D+00 0.767D+00
 Gap=     0.347 Goal=   None    Shift=    0.000
 RMSDP=3.63D-04 MaxDP=8.33D-03 DE=-8.39D-02 OVMax= 1.09D-02

 Cycle   4  Pass 1  IDiag  1:
 RMSU=  3.09D-04    CP:  9.44D-01  8.56D-01  9.94D-01
 E= -269.527866904637     Delta-E=       -0.002070053288 Rises=F Damp=F
 DIIS: error= 2.16D-03 at cycle   4 NSaved=   4.
 NSaved= 4 IEnMin= 4 EnMin= -269.527866904637     IErMin= 4 ErrMin= 2.16D-03
 ErrMax= 2.16D-03  0.00D+00 EMaxC= 1.00D-01 BMatC= 8.50D-04 BMatP= 4.08D-03
 IDIUse=3 WtCom= 9.78D-01 WtEn= 2.16D-02
 Coeff-Com: -0.314D-01 0.818D-01 0.379D+00 0.571D+00
 Coeff-En:   0.000D+00 0.000D+00 0.150D+00 0.850D+00
 Coeff:     -0.308D-01 0.801D-01 0.374D+00 0.577D+00
 Gap=     0.344 Goal=   None    Shift=    0.000
 RMSDP=1.71D-04 MaxDP=3.54D-03 DE=-2.07D-03 OVMax= 4.85D-03

 Cycle   5  Pass 1  IDiag  1:
 RMSU=  9.74D-05    CP:  9.41D-01  8.39D-01  1.01D+00  6.18D-01
 E= -269.528564624988     Delta-E=       -0.000697720351 Rises=F Damp=F
 DIIS: error= 1.71D-04 at cycle   5 NSaved=   5.
 NSaved= 5 IEnMin= 5 EnMin= -269.528564624988     IErMin= 5 ErrMin= 1.71D-04
 ErrMax= 1.71D-04  0.00D+00 EMaxC= 1.00D-01 BMatC= 7.15D-06 BMatP= 8.50D-04
 IDIUse=3 WtCom= 9.98D-01 WtEn= 1.71D-03
 Coeff-Com: -0.319D-02 0.416D-02 0.461D-01 0.128D+00 0.825D+00
 Coeff-En:   0.000D+00 0.000D+00 0.000D+00 0.000D+00 0.100D+01
 Coeff:     -0.319D-02 0.415D-02 0.460D-01 0.128D+00 0.825D+00
 Gap=     0.344 Goal=   None    Shift=    0.000
 RMSDP=2.91D-05 MaxDP=7.44D-04 DE=-6.98D-04 OVMax= 5.61D-04

 Cycle   6  Pass 1  IDiag  1:
 RMSU=  2.03D-05    CP:  9.41D-01  8.35D-01  1.01D+00  6.52D-01  9.38D-01
 E= -269.528570689850     Delta-E=       -0.000006064863 Rises=F Damp=F
 DIIS: error= 2.75D-05 at cycle   6 NSaved=   6.
 NSaved= 6 IEnMin= 6 EnMin= -269.528570689850     IErMin= 6 ErrMin= 2.75D-05
 ErrMax= 2.75D-05  0.00D+00 EMaxC= 1.00D-01 BMatC= 1.82D-07 BMatP= 7.15D-06
 IDIUse=1 WtCom= 1.00D+00 WtEn= 0.00D+00
 Coeff-Com:  0.568D-03-0.177D-02-0.461D-02 0.824D-03 0.921D-01 0.913D+00
 Coeff:      0.568D-03-0.177D-02-0.461D-02 0.824D-03 0.921D-01 0.913D+00
 Gap=     0.344 Goal=   None    Shift=    0.000
 RMSDP=9.94D-06 MaxDP=3.71D-04 DE=-6.06D-06 OVMax= 1.73D-04

 Cycle   7  Pass 1  IDiag  1:
 RMSU=  5.63D-06    CP:  9.41D-01  8.32D-01  1.01D+00  6.56D-01  9.72D-01
                    CP:  1.06D+00
 E= -269.528570865803     Delta-E=       -0.000000175953 Rises=F Damp=F
 DIIS: error= 1.60D-05 at cycle   7 NSaved=   7.
 NSaved= 7 IEnMin= 7 EnMin= -269.528570865803     IErMin= 7 ErrMin= 1.60D-05
 ErrMax= 1.60D-05  0.00D+00 EMaxC= 1.00D-01 BMatC= 6.38D-08 BMatP= 1.82D-07
 IDIUse=1 WtCom= 1.00D+00 WtEn= 0.00D+00
 Coeff-Com:  0.583D-03-0.122D-02-0.664D-02-0.122D-01-0.418D-01 0.391D+00
 Coeff-Com:  0.671D+00
 Coeff:      0.583D-03-0.122D-02-0.664D-02-0.122D-01-0.418D-01 0.391D+00
 Coeff:      0.671D+00
 Gap=     0.344 Goal=   None    Shift=    0.000
 RMSDP=2.51D-06 MaxDP=5.68D-05 DE=-1.76D-07 OVMax= 5.09D-05

 Cycle   8  Pass 1  IDiag  1:
 RMSU=  1.02D-06    CP:  9.41D-01  8.32D-01  1.01D+00  6.56D-01  9.75D-01
                    CP:  1.13D+00  8.85D-01
 E= -269.528570923766     Delta-E=       -0.000000057963 Rises=F Damp=F
 DIIS: error= 2.29D-06 at cycle   8 NSaved=   8.
 NSaved= 8 IEnMin= 8 EnMin= -269.528570923766     IErMin= 8 ErrMin= 2.29D-06
 ErrMax= 2.29D-06  0.00D+00 EMaxC= 1.00D-01 BMatC= 2.20D-09 BMatP= 6.38D-08
 IDIUse=1 WtCom= 1.00D+00 WtEn= 0.00D+00
 Coeff-Com:  0.147D-03-0.289D-03-0.184D-02-0.379D-02-0.178D-01 0.793D-01
 Coeff-Com:  0.211D+00 0.734D+00
 Coeff:      0.147D-03-0.289D-03-0.184D-02-0.379D-02-0.178D-01 0.793D-01
 Coeff:      0.211D+00 0.734D+00
 Gap=     0.344 Goal=   None    Shift=    0.000
 RMSDP=6.18D-07 MaxDP=1.99D-05 DE=-5.80D-08 OVMax= 1.44D-05

 Cycle   9  Pass 1  IDiag  1:
 RMSU=  3.72D-07    CP:  9.41D-01  8.32D-01  1.01D+00  6.56D-01  9.75D-01
                    CP:  1.13D+00  9.29D-01  1.02D+00
 E= -269.528570925373     Delta-E=       -0.000000001607 Rises=F Damp=F
 DIIS: error= 1.18D-06 at cycle   9 NSaved=   9.
 NSaved= 9 IEnMin= 9 EnMin= -269.528570925373     IErMin= 9 ErrMin= 1.18D-06
 ErrMax= 1.18D-06  0.00D+00 EMaxC= 1.00D-01 BMatC= 4.05D-10 BMatP= 2.20D-09
 IDIUse=1 WtCom= 1.00D+00 WtEn= 0.00D+00
 Coeff-Com: -0.196D-06 0.474D-05-0.115D-03-0.367D-03-0.341D-02-0.573D-02
 Coeff-Com:  0.199D-01 0.314D+00 0.676D+00
 Coeff:     -0.196D-06 0.474D-05-0.115D-03-0.367D-03-0.341D-02-0.573D-02
 Coeff:      0.199D-01 0.314D+00 0.676D+00
 Gap=     0.344 Goal=   None    Shift=    0.000
 RMSDP=1.52D-07 MaxDP=3.46D-06 DE=-1.61D-09 OVMax= 4.26D-06

 Cycle  10  Pass 1  IDiag  1:
 RMSU=  9.81D-08    CP:  9.41D-01  8.32D-01  1.01D+00  6.56D-01  9.75D-01
                    CP:  1.13D+00  9.36D-01  1.09D+00  9.16D-01
 E= -269.528570925682     Delta-E=       -0.000000000309 Rises=F Damp=F
 DIIS: error= 3.09D-07 at cycle  10 NSaved=  10.
 NSaved=10 IEnMin=10 EnMin= -269.528570925682     IErMin=10 ErrMin= 3.09D-07
 ErrMax= 3.09D-07  0.00D+00 EMaxC= 1.00D-01 BMatC= 2.48D-11 BMatP= 4.05D-10
 IDIUse=1 WtCom= 1.00D+00 WtEn= 0.00D+00
 Coeff-Com: -0.149D-04 0.308D-04 0.145D-03 0.260D-03 0.738D-03-0.960D-02
 Coeff-Com: -0.168D-01 0.153D-01 0.219D+00 0.790D+00
 Coeff:     -0.149D-04 0.308D-04 0.145D-03 0.260D-03 0.738D-03-0.960D-02
 Coeff:     -0.168D-01 0.153D-01 0.219D+00 0.790D+00
 Gap=     0.344 Goal=   None    Shift=    0.000
 RMSDP=5.91D-08 MaxDP=1.51D-06 DE=-3.09D-10 OVMax= 1.77D-06

 Cycle  11  Pass 1  IDiag  1:
 RMSU=  2.93D-08    CP:  9.41D-01  8.32D-01  1.01D+00  6.56D-01  9.75D-01
                    CP:  1.13D+00  9.43D-01  1.11D+00  9.66D-01  9.51D-01
 E= -269.528570925711     Delta-E=       -0.000000000029 Rises=F Damp=F
 DIIS: error= 5.94D-08 at cycle  11 NSaved=  11.
 NSaved=11 IEnMin=11 EnMin= -269.528570925711     IErMin=11 ErrMin= 5.94D-08
 ErrMax= 5.94D-08  0.00D+00 EMaxC= 1.00D-01 BMatC= 5.17D-13 BMatP= 2.48D-11
 IDIUse=1 WtCom= 1.00D+00 WtEn= 0.00D+00
 Coeff-Com: -0.824D-07 0.505D-06 0.107D-04 0.167D-04 0.133D-03 0.477D-04
 Coeff-Com: -0.161D-02-0.145D-01-0.186D-01 0.319D-01 0.100D+01
 Coeff:     -0.824D-07 0.505D-06 0.107D-04 0.167D-04 0.133D-03 0.477D-04
 Coeff:     -0.161D-02-0.145D-01-0.186D-01 0.319D-01 0.100D+01
 Gap=     0.344 Goal=   None    Shift=    0.000
 RMSDP=1.43D-08 MaxDP=4.39D-07 DE=-2.93D-11 OVMax= 5.89D-07

 Cycle  12  Pass 1  IDiag  1:
 RMSU=  7.92D-09    CP:  9.41D-01  8.32D-01  1.01D+00  6.56D-01  9.75D-01
                    CP:  1.13D+00  9.44D-01  1.11D+00  9.76D-01  9.98D-01
                    CP:  1.17D+00
 E= -269.528570925715     Delta-E=       -0.000000000003 Rises=F Damp=F
 DIIS: error= 1.83D-08 at cycle  12 NSaved=  12.
 NSaved=12 IEnMin=12 EnMin= -269.528570925715     IErMin=12 ErrMin= 1.83D-08
 ErrMax= 1.83D-08  0.00D+00 EMaxC= 1.00D-01 BMatC= 9.38D-14 BMatP= 5.17D-13
 IDIUse=1 WtCom= 1.00D+00 WtEn= 0.00D+00
 Coeff-Com:  0.934D-06-0.178D-05-0.527D-05-0.109D-04-0.709D-05 0.615D-03
 Coeff-Com:  0.513D-03-0.604D-02-0.198D-01-0.366D-01 0.349D+00 0.712D+00
 Coeff:      0.934D-06-0.178D-05-0.527D-05-0.109D-04-0.709D-05 0.615D-03
 Coeff:      0.513D-03-0.604D-02-0.198D-01-0.366D-01 0.349D+00 0.712D+00
 Gap=     0.344 Goal=   None    Shift=    0.000
 RMSDP=3.07D-09 MaxDP=7.47D-08 DE=-3.24D-12 OVMax= 1.37D-07

 SCF Done:  E(RM062X) =  -269.528570926     A.U. after   12 cycles
            NFock= 12  Conv=0.31D-08     -V/T= 2.0039
 KE= 2.684919887117D+02 PE=-1.000585775427D+03 EE= 2.780490939698D+02
 Leave Link  502 at Mon Nov 10 19:42:45 2025, MaxMem=    33554432 cpu:        24.6
 (Enter /opt/programs/gaussian/g09/d_pgi133/l601.exe)
 Copying SCF densities to generalized density rwf, IOpCl= 0 IROHF=0.

 **********************************************************************

            Population analysis using the SCF density.

 **********************************************************************

 Orbital symmetries:
       Occupied  (A) (A) (A) (A) (A) (A) (A) (A) (A) (A) (A) (A)
                 (A) (A) (A) (A) (A) (A) (A) (A) (A)
       Virtual   (A) (A) (A) (A) (A) (A) (A) (A) (A) (A) (A) (A)
                 (A) (A) (A) (A) (A) (A) (A) (A) (A) (A) (A) (A)
                 (A) (A) (A) (A) (A) (A) (A) (A) (A) (A) (A) (A)
                 (A) (A) (A) (A) (A) (A) (A) (A) (A) (A) (A) (A)
                 (A) (A) (A) (A) (A) (A) (A) (A) (A) (A) (A) (A)
                 (A) (A) (A) (A) (A) (A) (A) (A) (A) (A) (A) (A)
                 (A) (A) (A) (A) (A) (A) (A) (A) (A) (A) (A) (A)
                 (A) (A) (A) (A) (A) (A) (A) (A) (A) (A) (A) (A)
                 (A) (A) (A) (A) (A) (A) (A) (A) (A) (A) (A) (A)
                 (A) (A) (A) (A) (A) (A) (A) (A) (A) (A) (A) (A)
                 (A) (A) (A) (A) (A) (A) (A) (A) (A) (A) (A) (A)
                 (A) (A) (A) (A) (A) (A) (A) (A) (A) (A) (A) (A)
                 (A)
 The electronic state is 1-A.
 Alpha  occ. eigenvalues --  -19.62933 -19.62486 -10.59417 -10.58918 -10.53758
 Alpha  occ. eigenvalues --   -1.15088  -1.14639  -0.87934  -0.76338  -0.68892
 Alpha  occ. eigenvalues --   -0.60887  -0.57484  -0.55866  -0.51447  -0.49056
 Alpha  occ. eigenvalues --   -0.46571  -0.43864  -0.41133  -0.39337  -0.35774
 Alpha  occ. eigenvalues --   -0.35184
 Alpha virt. eigenvalues --   -0.00745   0.00135   0.01407   0.02021   0.03401
 Alpha virt. eigenvalues --    0.04724   0.05460   0.05565   0.07482   0.09497
 Alpha virt. eigenvalues --    0.09827   0.11488   0.12330   0.12602   0.13014
 Alpha virt. eigenvalues --    0.13369   0.13913   0.14803   0.15471   0.17192
 Alpha virt. eigenvalues --    0.20056   0.21023   0.21241   0.22159   0.22970
 Alpha virt. eigenvalues --    0.24213   0.24472   0.26625   0.26670   0.29450
 Alpha virt. eigenvalues --    0.29896   0.30884   0.31850   0.32867   0.33874
 Alpha virt. eigenvalues --    0.34919   0.35883   0.38276   0.40094   0.40907
 Alpha virt. eigenvalues --    0.46414   0.47553   0.48405   0.54323   0.57351
 Alpha virt. eigenvalues --    0.58940   0.61119   0.63269   0.66095   0.67734
 Alpha virt. eigenvalues --    0.69186   0.69845   0.71130   0.73278   0.75945
 Alpha virt. eigenvalues --    0.77600   0.78565   0.92596   0.96623   1.00399
 Alpha virt. eigenvalues --    1.01899   1.03761   1.12662   1.15311   1.19646
 Alpha virt. eigenvalues --    1.20926   1.24816   1.27921   1.31885   1.32663
 Alpha virt. eigenvalues --    1.34915   1.41992   1.45265   1.47566   1.54258
 Alpha virt. eigenvalues --    1.55957   1.58108   1.59430   1.60744   1.62930
 Alpha virt. eigenvalues --    1.63639   1.67077   1.68603   1.70355   1.73043
 Alpha virt. eigenvalues --    1.76194   1.79298   1.82819   1.85133   1.89617
 Alpha virt. eigenvalues --    1.93972   2.03186   2.06475   2.09369   2.10741
 Alpha virt. eigenvalues --    2.13957   2.15313   2.20289   2.28845   2.33308
 Alpha virt. eigenvalues --    2.36872   2.48610   2.49337   2.52279   2.53548
 Alpha virt. eigenvalues --    2.54517   2.59193   2.61664   2.64596   2.68164
 Alpha virt. eigenvalues --    2.71471   2.76308   2.83239   2.87904   2.91121
 Alpha virt. eigenvalues --    2.96141   3.02609   3.11686   3.15879   3.18736
 Alpha virt. eigenvalues --    3.23993   3.26646   3.31183   3.35427   3.47579
 Alpha virt. eigenvalues --    3.78065   3.81141   3.86404   3.91706   3.93875
 Alpha virt. eigenvalues --    4.04904   4.05298   4.17752   4.34417   5.16729
 Alpha virt. eigenvalues --    5.19795   5.48431   5.50427   5.73213   5.74664
 Alpha virt. eigenvalues --   23.89192  23.91877  23.97405  50.01837  50.02796
          Condensed to atoms (all electrons):
               1          2          3          4          5          6
     1  C    5.687602   0.431262   0.335360  -0.179328  -0.016123  -0.067914
     2  H    0.431262   0.696672  -0.108611  -0.086699   0.037009  -0.023535
     3  H    0.335360  -0.108611   0.652731   0.031507  -0.043588   0.014985
     4  C   -0.179328  -0.086699   0.031507   5.872596   0.341321   0.500125
     5  H   -0.016123   0.037009  -0.043588   0.341321   0.650818  -0.078479
     6  H   -0.067914  -0.023535   0.014985   0.500125  -0.078479   0.520495
     7  C   -0.037305  -0.021265   0.008297  -0.015879  -0.005466  -0.069085
     8  H    0.017828  -0.023273   0.003775   0.061587  -0.048032   0.024017
     9  H   -0.029114   0.023904  -0.006657  -0.056029   0.026295  -0.031276
    10  O    0.215073  -0.075726  -0.040916  -0.172967   0.018626   0.003819
    11  H    0.025243  -0.000055  -0.010557  -0.011158  -0.002101   0.000447
    12  O    0.039652  -0.000004  -0.000489  -0.112247  -0.024798   0.017453
    13  H    0.000495  -0.000377   0.000234  -0.000050   0.011703  -0.004788
               7          8          9         10         11         12
     1  C   -0.037305   0.017828  -0.029114   0.215073   0.025243   0.039652
     2  H   -0.021265  -0.023273   0.023904  -0.075726  -0.000055  -0.000004
     3  H    0.008297   0.003775  -0.006657  -0.040916  -0.010557  -0.000489
     4  C   -0.015879   0.061587  -0.056029  -0.172967  -0.011158  -0.112247
     5  H   -0.005466  -0.048032   0.026295   0.018626  -0.002101  -0.024798
     6  H   -0.069085   0.024017  -0.031276   0.003819   0.000447   0.017453
     7  C    5.537130   0.254944   0.458476   0.036002  -0.002000   0.246123
     8  H    0.254944   0.698512  -0.098411  -0.001923   0.001489  -0.025980
     9  H    0.458476  -0.098411   0.602139  -0.003167  -0.001028  -0.087745
    10  O    0.036002  -0.001923  -0.003167   8.066543   0.231669  -0.001261
    11  H   -0.002000   0.001489  -0.001028   0.231669   0.511394  -0.000053
    12  O    0.246123  -0.025980  -0.087745  -0.001261  -0.000053   7.949445
    13  H   -0.032145  -0.019987   0.019212  -0.000279  -0.000074   0.257775
              13
     1  C    0.000495
     2  H   -0.000377
     3  H    0.000234
     4  C   -0.000050
     5  H    0.011703
     6  H   -0.004788
     7  C   -0.032145
     8  H   -0.019987
     9  H    0.019212
    10  O   -0.000279
    11  H   -0.000074
    12  O    0.257775
    13  H    0.518402
 Mulliken charges:
               1
     1  C   -0.422729
     2  H    0.150699
     3  H    0.163928
     4  C   -0.172778
     5  H    0.132815
     6  H    0.193736
     7  C   -0.357826
     8  H    0.155455
     9  H    0.183401
    10  O   -0.275494
    11  H    0.256786
    12  O   -0.257871
    13  H    0.249878
 Sum of Mulliken charges =   0.00000
 Mulliken charges with hydrogens summed into heavy atoms:
               1
     1  C   -0.108103
     4  C    0.153774
     7  C   -0.018970
    10  O   -0.018708
    12  O   -0.007993
 Electronic spatial extent (au):  <R**2>=            623.6486
 Charge=              0.0000 electrons
 Dipole moment (field-independent basis, Debye):
    X=              1.4043    Y=              1.7544    Z=              1.7408  Tot=              2.8426
 Quadrupole moment (field-independent basis, Debye-Ang):
   XX=            -33.6671   YY=            -32.2772   ZZ=            -30.9888
   XY=              4.7942   XZ=             -3.3214   YZ=             -1.6297
 Traceless Quadrupole moment (field-independent basis, Debye-Ang):
   XX=             -1.3560   YY=              0.0338   ZZ=              1.3222
   XY=              4.7942   XZ=             -3.3214   YZ=             -1.6297
 Octapole moment (field-independent basis, Debye-Ang**2):
  XXX=             38.1563  YYY=             -1.9329  ZZZ=              0.7577  XYY=             -3.4146
  XXY=              7.8625  XXZ=             12.1639  XZZ=             -3.5409  YZZ=             -0.5188
  YYZ=              0.5737  XYZ=              3.2577
 Hexadecapole moment (field-independent basis, Debye-Ang**3):
 XXXX=           -556.3590 YYYY=            -97.5781 ZZZZ=            -56.8213 XXXY=             38.4358
 XXXZ=            -31.6313 YYYX=              3.8548 YYYZ=             -1.0965 ZZZX=             -2.4811
 ZZZY=             -1.9026 XXYY=           -118.3643 XXZZ=           -107.9718 YYZZ=            -23.3991
 XXYZ=            -10.0588 YYXZ=             -3.5920 ZZXY=              2.7809
 N-N= 1.845161218197D+02 E-N=-1.000585776076D+03  KE= 2.684919887117D+02
 No NMR shielding tensors so no spin-rotation constants.
 Leave Link  601 at Mon Nov 10 19:42:45 2025, MaxMem=    33554432 cpu:         0.0
 (Enter /opt/programs/gaussian/g09/d_pgi133/l9999.exe)
 1\1\GINC-EXADE5\SP\RM062X\6-311++G(d,p)\C3H8O2\APINTO\10-Nov-2025\0\\#
 p M062X/6-311++G(d,p)\\SP\\0,1\C,0,1.379964,0.025568,0.236489\H,0,1.36
 0539,0.497321,1.233987\H,0,1.585884,-1.045459,0.391623\C,0,0.024355,0.
 215872,-0.440063\H,0,-0.084662,-0.500776,-1.264737\H,0,0.007307,1.2173
 25,-0.883656\C,0,-1.152539,0.09459,0.529157\H,0,-1.132803,-0.883302,1.
 040121\H,0,-1.071893,0.861071,1.307402\O,0,2.368988,0.634779,-0.58638\
 H,0,3.232643,0.468338,-0.187873\O,0,-2.408244,0.318562,-0.09876\H,0,-2
 .521915,-0.362599,-0.774575\\Version=ES64L-G09RevD.01\State=1-A\HF=-26
 9.5285709\RMSD=3.073e-09\Dipole=0.6301224,-0.8350861,0.395345\Quadrupo
 le=-0.4701476,0.3039039,0.1662436,1.2916094,4.1869542,1.375797\PG=C01 
 [X(C3H8O2)]\\@


 BREAD HAS TO MOLD IN ORDER TO GET PENICILLIN.
          -- JERRY BOATZ
 Job cpu time:       0 days  0 hours  0 minutes 26.2 seconds.
 File lengths (MBytes):  RWF=     16 Int=      0 D2E=      0 Chk=      2 Scr=      1
 Normal termination of Gaussian 09 at Mon Nov 10 19:42:45 2025.
