 Entering Gaussian System, Link 0=g09
 Input=xay.com
 Output=xay.log
 Initial command:
 /opt/programs/gaussian/g09/d_pgi133/l1.exe "/scratch/users/apinto/lixo/Gau-1266986.inp" -scrdir="/scratch/users/apinto/lixo/"
 Entering Link 1 = /opt/programs/gaussian/g09/d_pgi133/l1.exe PID=   1266988.
  
 Copyright (c) 1988,1990,1992,1993,1995,1998,2003,2009,2013,
            Gaussian, Inc.  All Rights Reserved.
  
 This is part of the Gaussian(R) 09 program.  It is based on
 the Gaussian(R) 03 system (copyright 2003, Gaussian, Inc.),
 the Gaussian(R) 98 system (copyright 1998, Gaussian, Inc.),
 the Gaussian(R) 94 system (copyright 1995, Gaussian, Inc.),
 the Gaussian 92(TM) system (copyright 1992, Gaussian, Inc.),
 the Gaussian 90(TM) system (copyright 1990, Gaussian, Inc.),
 the Gaussian 88(TM) system (copyright 1988, Gaussian, Inc.),
 the Gaussian 86(TM) system (copyright 1986, Carnegie Mellon
 University), and the Gaussian 82(TM) system (copyright 1983,
 Carnegie Mellon University). Gaussian is a federally registered
 trademark of Gaussian, Inc.
  
 This software contains proprietary and confidential information,
 including trade secrets, belonging to Gaussian, Inc.
  
 This software is provided under written license and may be
 used, copied, transmitted, or stored only in accord with that
 written license.
  
 The following legend is applicable only to US Government
 contracts under FAR:
  
                    RESTRICTED RIGHTS LEGEND
  
 Use, reproduction and disclosure by the US Government is
 subject to restrictions as set forth in subparagraphs (a)
 and (c) of the Commercial Computer Software - Restricted
 Rights clause in FAR 52.227-19.
  
 Gaussian, Inc.
 340 Quinnipiac St., Bldg. 40, Wallingford CT 06492
  
  
 ---------------------------------------------------------------
 Warning -- This program may not be used in any manner that
 competes with the business of Gaussian, Inc. or will provide
 assistance to any competitor of Gaussian, Inc.  The licensee
 of this program is prohibited from giving any competitor of
 Gaussian, Inc. access to this program.  By using this program,
 the user acknowledges that Gaussian, Inc. is engaged in the
 business of creating and licensing software in the field of
 computational chemistry and represents and warrants to the
 licensee that it is not a competitor of Gaussian, Inc. and that
 it will not use this program in any manner prohibited above.
 ---------------------------------------------------------------
  

 Cite this work as:
 Gaussian 09, Revision D.01,
 M. J. Frisch, G. W. Trucks, H. B. Schlegel, G. E. Scuseria, 
 M. A. Robb, J. R. Cheeseman, G. Scalmani, V. Barone, B. Mennucci, 
 G. A. Petersson, H. Nakatsuji, M. Caricato, X. Li, H. P. Hratchian, 
 A. F. Izmaylov, J. Bloino, G. Zheng, J. L. Sonnenberg, M. Hada, 
 M. Ehara, K. Toyota, R. Fukuda, J. Hasegawa, M. Ishida, T. Nakajima, 
 Y. Honda, O. Kitao, H. Nakai, T. Vreven, J. A. Montgomery, Jr., 
 J. E. Peralta, F. Ogliaro, M. Bearpark, J. J. Heyd, E. Brothers, 
 K. N. Kudin, V. N. Staroverov, T. Keith, R. Kobayashi, J. Normand, 
 K. Raghavachari, A. Rendell, J. C. Burant, S. S. Iyengar, J. Tomasi, 
 M. Cossi, N. Rega, J. M. Millam, M. Klene, J. E. Knox, J. B. Cross, 
 V. Bakken, C. Adamo, J. Jaramillo, R. Gomperts, R. E. Stratmann, 
 O. Yazyev, A. J. Austin, R. Cammi, C. Pomelli, J. W. Ochterski, 
 R. L. Martin, K. Morokuma, V. G. Zakrzewski, G. A. Voth, 
 P. Salvador, J. J. Dannenberg, S. Dapprich, A. D. Daniels, 
 O. Farkas, J. B. Foresman, J. V. Ortiz, J. Cioslowski, 
 and D. J. Fox, Gaussian, Inc., Wallingford CT, 2013.
 
 ******************************************
 Gaussian 09:  ES64L-G09RevD.01 24-Apr-2013
                10-Nov-2025 
 ******************************************
 ----------------------
 #p M062X/6-311++G(d,p)
 ----------------------
 1/38=1/1;
 2/12=2,17=6,18=5,40=1/2;
 3/5=4,6=6,7=1111,11=2,16=1,25=1,30=1,74=-55/1,2,3;
 4//1;
 5/5=2,38=5/2;
 6/7=2,8=2,9=2,10=2,28=1/1;
 99/5=1,9=1/99;
 Leave Link    1 at Mon Nov 10 19:42:45 2025, MaxMem=           0 cpu:         0.0
 (Enter /opt/programs/gaussian/g09/d_pgi133/l101.exe)
 --
 SP
 --
 Symbolic Z-matrix:
 Charge =  0 Multiplicity = 1
 C                     1.38194   0.00228   0.22617 
 H                     1.34054   0.4099    1.25101 
 H                     1.62223  -1.06877   0.31741 
 C                     0.02419   0.19169  -0.45058 
 H                    -0.10293  -0.54183  -1.25738 
 H                     0.01907   1.18262  -0.91746 
 C                    -1.14896   0.11487   0.52813 
 H                    -1.13915  -0.84736   1.06845 
 H                    -1.05167   0.90329   1.28207 
 O                     2.35834   0.69375  -0.54547 
 H                     3.22366   0.52709  -0.15044 
 O                    -2.4052    0.33744  -0.0985 
 H                    -2.53443  -0.36366  -0.75068 
 
 NAtoms=     13 NQM=       13 NQMF=       0 NMMI=      0 NMMIF=      0
                NMic=       0 NMicF=      0.
                    Isotopes and Nuclear Properties:
 (Nuclear quadrupole moments (NQMom) in fm**2, nuclear magnetic moments (NMagM)
  in nuclear magnetons)

  Atom         1           2           3           4           5           6           7           8           9          10
 IAtWgt=          12           1           1          12           1           1          12           1           1          16
 AtmWgt=  12.0000000   1.0078250   1.0078250  12.0000000   1.0078250   1.0078250  12.0000000   1.0078250   1.0078250  15.9949146
 NucSpn=           0           1           1           0           1           1           0           1           1           0
 AtZEff=   0.0000000   0.0000000   0.0000000   0.0000000   0.0000000   0.0000000   0.0000000   0.0000000   0.0000000   0.0000000
 NQMom=    0.0000000   0.0000000   0.0000000   0.0000000   0.0000000   0.0000000   0.0000000   0.0000000   0.0000000   0.0000000
 NMagM=    0.0000000   2.7928460   2.7928460   0.0000000   2.7928460   2.7928460   0.0000000   2.7928460   2.7928460   0.0000000
 AtZNuc=   6.0000000   1.0000000   1.0000000   6.0000000   1.0000000   1.0000000   6.0000000   1.0000000   1.0000000   8.0000000

  Atom        11          12          13
 IAtWgt=           1          16           1
 AtmWgt=   1.0078250  15.9949146   1.0078250
 NucSpn=           1           0           1
 AtZEff=   0.0000000   0.0000000   0.0000000
 NQMom=    0.0000000   0.0000000   0.0000000
 NMagM=    2.7928460   0.0000000   2.7928460
 AtZNuc=   1.0000000   8.0000000   1.0000000
 Leave Link  101 at Mon Nov 10 19:42:45 2025, MaxMem=    33554432 cpu:         0.0
 (Enter /opt/programs/gaussian/g09/d_pgi133/l202.exe)
                          Input orientation:                          
 ---------------------------------------------------------------------
 Center     Atomic      Atomic             Coordinates (Angstroms)
 Number     Number       Type             X           Y           Z
 ---------------------------------------------------------------------
      1          6           0        1.381939    0.002284    0.226169
      2          1           0        1.340542    0.409899    1.251009
      3          1           0        1.622225   -1.068774    0.317412
      4          6           0        0.024187    0.191685   -0.450580
      5          1           0       -0.102927   -0.541828   -1.257381
      6          1           0        0.019068    1.182616   -0.917463
      7          6           0       -1.148959    0.114873    0.528129
      8          1           0       -1.139149   -0.847360    1.068454
      9          1           0       -1.051672    0.903288    1.282068
     10          8           0        2.358342    0.693749   -0.545467
     11          1           0        3.223660    0.527085   -0.150441
     12          8           0       -2.405200    0.337435   -0.098495
     13          1           0       -2.534430   -0.363658   -0.750678
 ---------------------------------------------------------------------
                    Distance matrix (angstroms):
                    1          2          3          4          5
     1  C    0.000000
     2  H    1.103703   0.000000
     3  H    1.101466   1.771277   0.000000
     4  C    1.528840   2.162363   2.175384   0.000000
     5  H    2.168365   3.046540   2.394534   1.097783   0.000000
     6  H    2.135063   2.654365   3.027175   1.095422   1.761855
     7  C    2.551333   2.609063   3.020742   1.529720   2.171056
     8  H    2.790560   2.786197   2.870239   2.177253   2.564491
     9  H    2.801641   2.442762   3.459670   2.160074   3.072015
    10  O    1.423695   2.084182   2.095928   2.389425   2.844524
    11  H    1.951714   2.350304   2.308733   3.230976   3.665252
    12  O    3.815777   3.982084   4.286088   2.459091   2.723340
    13  H    4.052911   4.429509   4.349228   2.635334   2.490120
                    6          7          8          9         10
     6  H    0.000000
     7  C    2.143385   0.000000
     8  H    3.066942   1.103603   0.000000
     9  H    2.462203   1.095211   1.765801   0.000000
    10  O    2.418589   3.713336   4.148759   3.874530   0.000000
    11  H    3.359681   4.444117   4.733805   4.524608   0.965711
    12  O    2.694831   1.421384   2.090070   2.014493   4.797716
    13  H    2.989838   1.945217   2.343079   2.817052   5.009934
                   11         12         13
    11  H    0.000000
    12  O    5.632294   0.000000
    13  H    5.857415   0.966217   0.000000
 Stoichiometry    C3H8O2
 Framework group  C1[X(C3H8O2)]
 Deg. of freedom    33
 Full point group                 C1      NOp   1
 Largest Abelian subgroup         C1      NOp   1
 Largest concise Abelian subgroup C1      NOp   1
                         Standard orientation:                         
 ---------------------------------------------------------------------
 Center     Atomic      Atomic             Coordinates (Angstroms)
 Number     Number       Type             X           Y           Z
 ---------------------------------------------------------------------
      1          6           0        1.281352    0.465340    0.167404
      2          1           0        1.186326    1.287659   -0.562611
      3          1           0        1.455576    0.929396    1.151032
      4          6           0       -0.010166   -0.352669    0.181393
      5          1           0       -0.116836   -0.876482    1.140230
      6          1           0        0.073270   -1.121858   -0.594067
      7          6           0       -1.255083    0.488208   -0.106967
      8          1           0       -1.337731    1.317172    0.616862
      9          1           0       -1.171207    0.941464   -1.100451
     10          8           0        2.348450   -0.403525   -0.197676
     11          1           0        3.171745    0.099083   -0.151116
     12          8           0       -2.447432   -0.284869   -0.138403
     13          1           0       -2.565908   -0.674556    0.737772
 ---------------------------------------------------------------------
 Rotational constants (GHZ):     19.6235492      1.9943256      1.9092083
 Leave Link  202 at Mon Nov 10 19:42:45 2025, MaxMem=    33554432 cpu:         0.0
 (Enter /opt/programs/gaussian/g09/d_pgi133/l301.exe)
 Standard basis: 6-311++G(d,p) (5D, 7F)
 Ernie: Thresh=  0.10000D-02 Tol=  0.10000D-05 Strict=F.
 There are   171 symmetry adapted cartesian basis functions of A   symmetry.
 There are   166 symmetry adapted basis functions of A   symmetry.
   166 basis functions,   252 primitive gaussians,   171 cartesian basis functions
    21 alpha electrons       21 beta electrons
       nuclear repulsion energy       184.5340413757 Hartrees.
 IExCor= 4336 DFT=T Ex+Corr=M062X ExCW=0 ScaHFX=  0.540000
 ScaDFX=  1.000000  1.000000  1.000000  1.000000 ScalE2=  1.000000  1.000000
 IRadAn=      0 IRanWt=     -1 IRanGd=            0 ICorTp=0 IEmpDi=  4
 NAtoms=   13 NActive=   13 NUniq=   13 SFac= 1.00D+00 NAtFMM=   60 NAOKFM=F Big=F
 Integral buffers will be    131072 words long.
 Raffenetti 2 integral format.
 Two-electron integral symmetry is turned on.
 Leave Link  301 at Mon Nov 10 19:42:45 2025, MaxMem=    33554432 cpu:         0.0
 (Enter /opt/programs/gaussian/g09/d_pgi133/l302.exe)
 NPDir=0 NMtPBC=     1 NCelOv=     1 NCel=       1 NClECP=     1 NCelD=      1
         NCelK=      1 NCelE2=     1 NClLst=     1 CellRange=     0.0.
 One-electron integrals computed using PRISM.
 NBasis=   166 RedAO= T EigKep=  4.27D-05  NBF=   166
 NBsUse=   166 1.00D-06 EigRej= -1.00D+00 NBFU=   166
 Precomputing XC quadrature grid using
 IXCGrd= 4 IRadAn=           0 IRanWt=          -1 IRanGd=           0 AccXCQ= 0.00D+00.
 Generated NRdTot=       0 NPtTot=           0 NUsed=           0 NTot=          32
 NSgBfM=   171   171   171   171   171 MxSgAt=    13 MxSgA2=    13.
 Leave Link  302 at Mon Nov 10 19:42:45 2025, MaxMem=    33554432 cpu:         0.1
 (Enter /opt/programs/gaussian/g09/d_pgi133/l303.exe)
 DipDrv:  MaxL=1.
 Leave Link  303 at Mon Nov 10 19:42:45 2025, MaxMem=    33554432 cpu:         0.0
 (Enter /opt/programs/gaussian/g09/d_pgi133/l401.exe)
 ExpMin= 3.60D-02 ExpMax= 8.59D+03 ExpMxC= 1.30D+03 IAcc=3 IRadAn=         5 AccDes= 0.00D+00
 Harris functional with IExCor= 1009 and IRadAn=       5 diagonalized for initial guess.
 HarFok:  IExCor= 1009 AccDes= 0.00D+00 IRadAn=         5 IDoV= 1 UseB2=F ITyADJ=14
 ICtDFT=  3500011 ScaDFX=  1.000000  1.000000  1.000000  1.000000
 FoFCou: FMM=F IPFlag=           0 FMFlag=      100000 FMFlg1=           0
         NFxFlg=           0 DoJE=T BraDBF=F KetDBF=T FulRan=T
         wScrn=  0.000000 ICntrl=     500 IOpCl=  0 I1Cent=   200000004 NGrid=           0
         NMat0=    1 NMatS0=      1 NMatT0=    0 NMatD0=    1 NMtDS0=    0 NMtDT0=    0
 Petite list used in FoFCou.
 Harris En= -269.441284020121    
 JPrj=0 DoOrth=F DoCkMO=F.
 Leave Link  401 at Mon Nov 10 19:42:47 2025, MaxMem=    33554432 cpu:         1.5
 (Enter /opt/programs/gaussian/g09/d_pgi133/l502.exe)
 Closed shell SCF:
 Using DIIS extrapolation, IDIIS=  1040.
 Integral symmetry usage will be decided dynamically.
 IVT=      108587 IEndB=      108587 NGot=    33554432 MDV=    33491898
 LenX=    33491898 LenY=    33462216
 Requested convergence on RMS density matrix=1.00D-08 within 128 cycles.
 Requested convergence on MAX density matrix=1.00D-06.
 Requested convergence on             energy=1.00D-06.
 No special actions if energy rises.
 Fock matrices will be formed incrementally for  20 cycles.

 Cycle   1  Pass 1  IDiag  1:
 FoFJK:  IHMeth= 1 ICntrl=       0 DoSepK=F KAlg= 0 I1Cent=   0 FoldK=F
 IRaf= 970000000 NMat=   1 IRICut=       1 DoRegI=T DoRafI=F ISym2E= 0.
 FoFCou: FMM=F IPFlag=           0 FMFlag=      100000 FMFlg1=           0
         NFxFlg=           0 DoJE=F BraDBF=F KetDBF=F FulRan=T
         wScrn=  0.000000 ICntrl=       0 IOpCl=  0 I1Cent=           0 NGrid=           0
         NMat0=    1 NMatS0=      1 NMatT0=    0 NMatD0=    1 NMtDS0=    0 NMtDT0=    0
 Symmetry not used in FoFCou.
 E= -269.360108702591    
 DIIS: error= 2.84D-02 at cycle   1 NSaved=   1.
 NSaved= 1 IEnMin= 1 EnMin= -269.360108702591     IErMin= 1 ErrMin= 2.84D-02
 ErrMax= 2.84D-02  0.00D+00 EMaxC= 1.00D-01 BMatC= 2.34D-01 BMatP= 2.34D-01
 IDIUse=3 WtCom= 7.16D-01 WtEn= 2.84D-01
 Coeff-Com:  0.100D+01
 Coeff-En:   0.100D+01
 Coeff:      0.100D+01
 Gap=     0.290 Goal=   None    Shift=    0.000
 GapD=    0.290 DampG=1.000 DampE=0.500 DampFc=0.5000 IDamp=-1.
 Damping current iteration by 5.00D-01
 RMSDP=6.81D-03 MaxDP=2.03D-01              OVMax= 1.32D-01

 Cycle   2  Pass 1  IDiag  1:
 RMSU=  3.39D-03    CP:  9.81D-01
 E= -269.441256950931     Delta-E=       -0.081148248339 Rises=F Damp=T
 DIIS: error= 7.27D-03 at cycle   2 NSaved=   2.
 NSaved= 2 IEnMin= 2 EnMin= -269.441256950931     IErMin= 2 ErrMin= 7.27D-03
 ErrMax= 7.27D-03  0.00D+00 EMaxC= 1.00D-01 BMatC= 1.51D-02 BMatP= 2.34D-01
 IDIUse=3 WtCom= 9.27D-01 WtEn= 7.27D-02
 Coeff-Com: -0.395D-01 0.104D+01
 Coeff-En:   0.000D+00 0.100D+01
 Coeff:     -0.366D-01 0.104D+01
 Gap=     0.353 Goal=   None    Shift=    0.000
 RMSDP=2.24D-03 MaxDP=1.12D-01 DE=-8.11D-02 OVMax= 7.44D-02

 Cycle   3  Pass 1  IDiag  1:
 RMSU=  2.08D-03    CP:  9.44D-01  8.13D-01
 E= -269.525167519932     Delta-E=       -0.083910569001 Rises=F Damp=F
 DIIS: error= 4.39D-03 at cycle   3 NSaved=   3.
 NSaved= 3 IEnMin= 3 EnMin= -269.525167519932     IErMin= 3 ErrMin= 4.39D-03
 ErrMax= 4.39D-03  0.00D+00 EMaxC= 1.00D-01 BMatC= 4.10D-03 BMatP= 1.51D-02
 IDIUse=3 WtCom= 9.56D-01 WtEn= 4.39D-02
 Coeff-Com: -0.767D-01 0.321D+00 0.756D+00
 Coeff-En:   0.000D+00 0.000D+00 0.100D+01
 Coeff:     -0.733D-01 0.307D+00 0.766D+00
 Gap=     0.346 Goal=   None    Shift=    0.000
 RMSDP=3.60D-04 MaxDP=8.33D-03 DE=-8.39D-02 OVMax= 1.08D-02

 Cycle   4  Pass 1  IDiag  1:
 RMSU=  3.11D-04    CP:  9.44D-01  8.67D-01  9.94D-01
 E= -269.527254884621     Delta-E=       -0.002087364689 Rises=F Damp=F
 DIIS: error= 2.04D-03 at cycle   4 NSaved=   4.
 NSaved= 4 IEnMin= 4 EnMin= -269.527254884621     IErMin= 4 ErrMin= 2.04D-03
 ErrMax= 2.04D-03  0.00D+00 EMaxC= 1.00D-01 BMatC= 8.42D-04 BMatP= 4.10D-03
 IDIUse=3 WtCom= 9.80D-01 WtEn= 2.04D-02
 Coeff-Com: -0.317D-01 0.824D-01 0.378D+00 0.572D+00
 Coeff-En:   0.000D+00 0.000D+00 0.146D+00 0.854D+00
 Coeff:     -0.310D-01 0.807D-01 0.373D+00 0.577D+00
 Gap=     0.344 Goal=   None    Shift=    0.000
 RMSDP=1.68D-04 MaxDP=3.57D-03 DE=-2.09D-03 OVMax= 4.83D-03

 Cycle   5  Pass 1  IDiag  1:
 RMSU=  9.69D-05    CP:  9.41D-01  8.51D-01  1.01D+00  6.24D-01
 E= -269.527948102705     Delta-E=       -0.000693218084 Rises=F Damp=F
 DIIS: error= 1.58D-04 at cycle   5 NSaved=   5.
 NSaved= 5 IEnMin= 5 EnMin= -269.527948102705     IErMin= 5 ErrMin= 1.58D-04
 ErrMax= 1.58D-04  0.00D+00 EMaxC= 1.00D-01 BMatC= 7.14D-06 BMatP= 8.42D-04
 IDIUse=3 WtCom= 9.98D-01 WtEn= 1.58D-03
 Coeff-Com: -0.325D-02 0.426D-02 0.459D-01 0.128D+00 0.825D+00
 Coeff-En:   0.000D+00 0.000D+00 0.000D+00 0.000D+00 0.100D+01
 Coeff:     -0.324D-02 0.426D-02 0.458D-01 0.128D+00 0.825D+00
 Gap=     0.344 Goal=   None    Shift=    0.000
 RMSDP=2.90D-05 MaxDP=7.43D-04 DE=-6.93D-04 OVMax= 5.54D-04

 Cycle   6  Pass 1  IDiag  1:
 RMSU=  2.02D-05    CP:  9.41D-01  8.47D-01  1.01D+00  6.59D-01  9.40D-01
 E= -269.527954161889     Delta-E=       -0.000006059184 Rises=F Damp=F
 DIIS: error= 2.47D-05 at cycle   6 NSaved=   6.
 NSaved= 6 IEnMin= 6 EnMin= -269.527954161889     IErMin= 6 ErrMin= 2.47D-05
 ErrMax= 2.47D-05  0.00D+00 EMaxC= 1.00D-01 BMatC= 1.78D-07 BMatP= 7.14D-06
 IDIUse=1 WtCom= 1.00D+00 WtEn= 0.00D+00
 Coeff-Com:  0.581D-03-0.179D-02-0.481D-02 0.276D-03 0.882D-01 0.918D+00
 Coeff:      0.581D-03-0.179D-02-0.481D-02 0.276D-03 0.882D-01 0.918D+00
 Gap=     0.344 Goal=   None    Shift=    0.000
 RMSDP=9.71D-06 MaxDP=3.35D-04 DE=-6.06D-06 OVMax= 1.71D-04

 Cycle   7  Pass 1  IDiag  1:
 RMSU=  5.52D-06    CP:  9.41D-01  8.45D-01  1.01D+00  6.62D-01  9.72D-01
                    CP:  1.07D+00
 E= -269.527954335539     Delta-E=       -0.000000173650 Rises=F Damp=F
 DIIS: error= 1.56D-05 at cycle   7 NSaved=   7.
 NSaved= 7 IEnMin= 7 EnMin= -269.527954335539     IErMin= 7 ErrMin= 1.56D-05
 ErrMax= 1.56D-05  0.00D+00 EMaxC= 1.00D-01 BMatC= 6.27D-08 BMatP= 1.78D-07
 IDIUse=1 WtCom= 1.00D+00 WtEn= 0.00D+00
 Coeff-Com:  0.586D-03-0.122D-02-0.660D-02-0.122D-01-0.417D-01 0.392D+00
 Coeff-Com:  0.669D+00
 Coeff:      0.586D-03-0.122D-02-0.660D-02-0.122D-01-0.417D-01 0.392D+00
 Coeff:      0.669D+00
 Gap=     0.344 Goal=   None    Shift=    0.000
 RMSDP=2.45D-06 MaxDP=5.41D-05 DE=-1.74D-07 OVMax= 5.09D-05

 Cycle   8  Pass 1  IDiag  1:
 RMSU=  1.01D-06    CP:  9.41D-01  8.45D-01  1.01D+00  6.62D-01  9.75D-01
                    CP:  1.14D+00  8.84D-01
 E= -269.527954392319     Delta-E=       -0.000000056780 Rises=F Damp=F
 DIIS: error= 2.36D-06 at cycle   8 NSaved=   8.
 NSaved= 8 IEnMin= 8 EnMin= -269.527954392319     IErMin= 8 ErrMin= 2.36D-06
 ErrMax= 2.36D-06  0.00D+00 EMaxC= 1.00D-01 BMatC= 2.22D-09 BMatP= 6.27D-08
 IDIUse=1 WtCom= 1.00D+00 WtEn= 0.00D+00
 Coeff-Com:  0.147D-03-0.289D-03-0.182D-02-0.375D-02-0.177D-01 0.788D-01
 Coeff-Com:  0.211D+00 0.733D+00
 Coeff:      0.147D-03-0.289D-03-0.182D-02-0.375D-02-0.177D-01 0.788D-01
 Coeff:      0.211D+00 0.733D+00
 Gap=     0.344 Goal=   None    Shift=    0.000
 RMSDP=6.21D-07 MaxDP=2.02D-05 DE=-5.68D-08 OVMax= 1.42D-05

 Cycle   9  Pass 1  IDiag  1:
 RMSU=  3.73D-07    CP:  9.41D-01  8.45D-01  1.01D+00  6.63D-01  9.76D-01
                    CP:  1.14D+00  9.29D-01  1.01D+00
 E= -269.527954393955     Delta-E=       -0.000000001635 Rises=F Damp=F
 DIIS: error= 1.20D-06 at cycle   9 NSaved=   9.
 NSaved= 9 IEnMin= 9 EnMin= -269.527954393955     IErMin= 9 ErrMin= 1.20D-06
 ErrMax= 1.20D-06  0.00D+00 EMaxC= 1.00D-01 BMatC= 3.96D-10 BMatP= 2.22D-09
 IDIUse=1 WtCom= 1.00D+00 WtEn= 0.00D+00
 Coeff-Com:  0.284D-06 0.381D-05-0.117D-03-0.370D-03-0.341D-02-0.556D-02
 Coeff-Com:  0.208D-01 0.311D+00 0.677D+00
 Coeff:      0.284D-06 0.381D-05-0.117D-03-0.370D-03-0.341D-02-0.556D-02
 Coeff:      0.208D-01 0.311D+00 0.677D+00
 Gap=     0.344 Goal=   None    Shift=    0.000
 RMSDP=1.50D-07 MaxDP=3.45D-06 DE=-1.64D-09 OVMax= 4.25D-06

 Cycle  10  Pass 1  IDiag  1:
 RMSU=  9.81D-08    CP:  9.41D-01  8.44D-01  1.01D+00  6.63D-01  9.75D-01
                    CP:  1.15D+00  9.36D-01  1.08D+00  9.27D-01
 E= -269.527954394258     Delta-E=       -0.000000000303 Rises=F Damp=F
 DIIS: error= 3.00D-07 at cycle  10 NSaved=  10.
 NSaved=10 IEnMin=10 EnMin= -269.527954394258     IErMin=10 ErrMin= 3.00D-07
 ErrMax= 3.00D-07  0.00D+00 EMaxC= 1.00D-01 BMatC= 2.57D-11 BMatP= 3.96D-10
 IDIUse=1 WtCom= 1.00D+00 WtEn= 0.00D+00
 Coeff-Com: -0.149D-04 0.307D-04 0.143D-03 0.257D-03 0.722D-03-0.964D-02
 Coeff-Com: -0.168D-01 0.151D-01 0.224D+00 0.786D+00
 Coeff:     -0.149D-04 0.307D-04 0.143D-03 0.257D-03 0.722D-03-0.964D-02
 Coeff:     -0.168D-01 0.151D-01 0.224D+00 0.786D+00
 Gap=     0.344 Goal=   None    Shift=    0.000
 RMSDP=5.81D-08 MaxDP=1.41D-06 DE=-3.03D-10 OVMax= 1.78D-06

 Cycle  11  Pass 1  IDiag  1:
 RMSU=  2.96D-08    CP:  9.41D-01  8.44D-01  1.01D+00  6.63D-01  9.75D-01
                    CP:  1.15D+00  9.43D-01  1.10D+00  9.77D-01  9.46D-01
 E= -269.527954394285     Delta-E=       -0.000000000028 Rises=F Damp=F
 DIIS: error= 5.87D-08 at cycle  11 NSaved=  11.
 NSaved=11 IEnMin=11 EnMin= -269.527954394285     IErMin=11 ErrMin= 5.87D-08
 ErrMax= 5.87D-08  0.00D+00 EMaxC= 1.00D-01 BMatC= 5.38D-13 BMatP= 2.57D-11
 IDIUse=1 WtCom= 1.00D+00 WtEn= 0.00D+00
 Coeff-Com: -0.272D-06 0.885D-06 0.125D-04 0.204D-04 0.147D-03-0.401D-04
 Coeff-Com: -0.186D-02-0.146D-01-0.168D-01 0.388D-01 0.994D+00
 Coeff:     -0.272D-06 0.885D-06 0.125D-04 0.204D-04 0.147D-03-0.401D-04
 Coeff:     -0.186D-02-0.146D-01-0.168D-01 0.388D-01 0.994D+00
 Gap=     0.344 Goal=   None    Shift=    0.000
 RMSDP=1.48D-08 MaxDP=4.53D-07 DE=-2.75D-11 OVMax= 5.96D-07

 Cycle  12  Pass 1  IDiag  1:
 RMSU=  8.52D-09    CP:  9.41D-01  8.44D-01  1.01D+00  6.63D-01  9.75D-01
                    CP:  1.15D+00  9.44D-01  1.11D+00  9.89D-01  9.91D-01
                    CP:  1.16D+00
 E= -269.527954394285     Delta-E=        0.000000000000 Rises=F Damp=F
 DIIS: error= 1.85D-08 at cycle  12 NSaved=  12.
 NSaved=12 IEnMin=12 EnMin= -269.527954394285     IErMin=12 ErrMin= 1.85D-08
 ErrMax= 1.85D-08  0.00D+00 EMaxC= 1.00D-01 BMatC= 8.97D-14 BMatP= 5.38D-13
 IDIUse=1 WtCom= 1.00D+00 WtEn= 0.00D+00
 Coeff-Com:  0.911D-06-0.173D-05-0.512D-05-0.106D-04-0.701D-05 0.605D-03
 Coeff-Com:  0.496D-03-0.580D-02-0.195D-01-0.361D-01 0.328D+00 0.732D+00
 Coeff:      0.911D-06-0.173D-05-0.512D-05-0.106D-04-0.701D-05 0.605D-03
 Coeff:      0.496D-03-0.580D-02-0.195D-01-0.361D-01 0.328D+00 0.732D+00
 Gap=     0.344 Goal=   None    Shift=    0.000
 RMSDP=3.16D-09 MaxDP=7.12D-08 DE=-2.27D-13 OVMax= 1.44D-07

 SCF Done:  E(RM062X) =  -269.527954394     A.U. after   12 cycles
            NFock= 12  Conv=0.32D-08     -V/T= 2.0039
 KE= 2.684918110452D+02 PE=-1.000625566219D+03 EE= 2.780717594039D+02
 Leave Link  502 at Mon Nov 10 19:43:11 2025, MaxMem=    33554432 cpu:        24.6
 (Enter /opt/programs/gaussian/g09/d_pgi133/l601.exe)
 Copying SCF densities to generalized density rwf, IOpCl= 0 IROHF=0.

 **********************************************************************

            Population analysis using the SCF density.

 **********************************************************************

 Orbital symmetries:
       Occupied  (A) (A) (A) (A) (A) (A) (A) (A) (A) (A) (A) (A)
                 (A) (A) (A) (A) (A) (A) (A) (A) (A)
       Virtual   (A) (A) (A) (A) (A) (A) (A) (A) (A) (A) (A) (A)
                 (A) (A) (A) (A) (A) (A) (A) (A) (A) (A) (A) (A)
                 (A) (A) (A) (A) (A) (A) (A) (A) (A) (A) (A) (A)
                 (A) (A) (A) (A) (A) (A) (A) (A) (A) (A) (A) (A)
                 (A) (A) (A) (A) (A) (A) (A) (A) (A) (A) (A) (A)
                 (A) (A) (A) (A) (A) (A) (A) (A) (A) (A) (A) (A)
                 (A) (A) (A) (A) (A) (A) (A) (A) (A) (A) (A) (A)
                 (A) (A) (A) (A) (A) (A) (A) (A) (A) (A) (A) (A)
                 (A) (A) (A) (A) (A) (A) (A) (A) (A) (A) (A) (A)
                 (A) (A) (A) (A) (A) (A) (A) (A) (A) (A) (A) (A)
                 (A) (A) (A) (A) (A) (A) (A) (A) (A) (A) (A) (A)
                 (A) (A) (A) (A) (A) (A) (A) (A) (A) (A) (A) (A)
                 (A)
 The electronic state is 1-A.
 Alpha  occ. eigenvalues --  -19.62923 -19.62478 -10.59423 -10.58899 -10.53750
 Alpha  occ. eigenvalues --   -1.15076  -1.14639  -0.87894  -0.76324  -0.68895
 Alpha  occ. eigenvalues --   -0.60924  -0.57411  -0.55891  -0.51411  -0.48996
 Alpha  occ. eigenvalues --   -0.46516  -0.43915  -0.41182  -0.39304  -0.35750
 Alpha  occ. eigenvalues --   -0.35142
 Alpha virt. eigenvalues --   -0.00755   0.00124   0.01412   0.02022   0.03387
 Alpha virt. eigenvalues --    0.04754   0.05443   0.05558   0.07685   0.09512
 Alpha virt. eigenvalues --    0.09684   0.11432   0.12228   0.12590   0.13002
 Alpha virt. eigenvalues --    0.13344   0.14030   0.14796   0.15555   0.17185
 Alpha virt. eigenvalues --    0.20083   0.20749   0.21275   0.22051   0.22890
 Alpha virt. eigenvalues --    0.24124   0.24723   0.26577   0.26791   0.29377
 Alpha virt. eigenvalues --    0.29724   0.30974   0.31893   0.32811   0.33747
 Alpha virt. eigenvalues --    0.35065   0.36155   0.37973   0.39993   0.40858
 Alpha virt. eigenvalues --    0.46609   0.47704   0.48563   0.54348   0.57276
 Alpha virt. eigenvalues --    0.59144   0.60952   0.62918   0.65696   0.67698
 Alpha virt. eigenvalues --    0.69177   0.69840   0.71294   0.72957   0.75694
 Alpha virt. eigenvalues --    0.77008   0.78762   0.92511   0.96272   0.99699
 Alpha virt. eigenvalues --    1.01986   1.04299   1.12649   1.15248   1.19730
 Alpha virt. eigenvalues --    1.21064   1.24921   1.27939   1.32124   1.33256
 Alpha virt. eigenvalues --    1.35030   1.42183   1.45191   1.47130   1.54313
 Alpha virt. eigenvalues --    1.55944   1.57704   1.59690   1.60605   1.62900
 Alpha virt. eigenvalues --    1.63885   1.66685   1.68667   1.70156   1.72871
 Alpha virt. eigenvalues --    1.76226   1.79532   1.83444   1.85802   1.89119
 Alpha virt. eigenvalues --    1.94194   2.03253   2.06415   2.09069   2.10624
 Alpha virt. eigenvalues --    2.13964   2.14863   2.20230   2.28299   2.32723
 Alpha virt. eigenvalues --    2.36680   2.48373   2.49289   2.52295   2.54046
 Alpha virt. eigenvalues --    2.54685   2.59284   2.61590   2.64442   2.69163
 Alpha virt. eigenvalues --    2.71381   2.75412   2.83874   2.87538   2.90647
 Alpha virt. eigenvalues --    2.96195   3.02380   3.11509   3.15867   3.18679
 Alpha virt. eigenvalues --    3.23336   3.26681   3.31013   3.35320   3.47406
 Alpha virt. eigenvalues --    3.77697   3.80384   3.85909   3.91633   3.93960
 Alpha virt. eigenvalues --    4.05118   4.06009   4.18155   4.34591   5.16722
 Alpha virt. eigenvalues --    5.19827   5.48220   5.50425   5.73274   5.74591
 Alpha virt. eigenvalues --   23.89163  23.91796  23.97357  50.01718  50.02780
          Condensed to atoms (all electrons):
               1          2          3          4          5          6
     1  C    5.678624   0.435722   0.332781  -0.177838  -0.019379  -0.069923
     2  H    0.435722   0.692641  -0.104644  -0.092065   0.036754  -0.019159
     3  H    0.332781  -0.104644   0.648572   0.032476  -0.042060   0.012811
     4  C   -0.177838  -0.092065   0.032476   5.833750   0.342668   0.506036
     5  H   -0.019379   0.036754  -0.042060   0.342668   0.650994  -0.075825
     6  H   -0.069923  -0.019159   0.012811   0.506036  -0.075825   0.513400
     7  C   -0.028482  -0.023878   0.012950   0.016171  -0.008535  -0.070669
     8  H    0.021865  -0.022389   0.000158   0.054764  -0.046407   0.023385
     9  H   -0.030618   0.022924  -0.005057  -0.056547   0.025539  -0.030551
    10  O    0.213919  -0.076807  -0.041361  -0.162130   0.019776   0.000481
    11  H    0.023604  -0.000245  -0.010222  -0.012464  -0.002473   0.001002
    12  O    0.039953   0.000860  -0.001109  -0.111439  -0.024162   0.017216
    13  H    0.000203  -0.000183   0.000360  -0.000663   0.011278  -0.004696
               7          8          9         10         11         12
     1  C   -0.028482   0.021865  -0.030618   0.213919   0.023604   0.039953
     2  H   -0.023878  -0.022389   0.022924  -0.076807  -0.000245   0.000860
     3  H    0.012950   0.000158  -0.005057  -0.041361  -0.010222  -0.001109
     4  C    0.016171   0.054764  -0.056547  -0.162130  -0.012464  -0.111439
     5  H   -0.008535  -0.046407   0.025539   0.019776  -0.002473  -0.024162
     6  H   -0.070669   0.023385  -0.030551   0.000481   0.001002   0.017216
     7  C    5.507139   0.260934   0.459479   0.028329  -0.000366   0.241840
     8  H    0.260934   0.693792  -0.096581  -0.001800   0.001581  -0.026520
     9  H    0.459479  -0.096581   0.597463  -0.003270  -0.001194  -0.086607
    10  O    0.028329  -0.001800  -0.003270   8.067165   0.235078  -0.001294
    11  H   -0.000366   0.001581  -0.001194   0.235078   0.508901  -0.000051
    12  O    0.241840  -0.026520  -0.086607  -0.001294  -0.000051   7.952056
    13  H   -0.031290  -0.019604   0.018822  -0.000270  -0.000064   0.257866
              13
     1  C    0.000203
     2  H   -0.000183
     3  H    0.000360
     4  C   -0.000663
     5  H    0.011278
     6  H   -0.004696
     7  C   -0.031290
     8  H   -0.019604
     9  H    0.018822
    10  O   -0.000270
    11  H   -0.000064
    12  O    0.257866
    13  H    0.518108
 Mulliken charges:
               1
     1  C   -0.420433
     2  H    0.150469
     3  H    0.164344
     4  C   -0.172718
     5  H    0.131831
     6  H    0.196491
     7  C   -0.363624
     8  H    0.156822
     9  H    0.186199
    10  O   -0.277816
    11  H    0.256912
    12  O   -0.258610
    13  H    0.250133
 Sum of Mulliken charges =   0.00000
 Mulliken charges with hydrogens summed into heavy atoms:
               1
     1  C   -0.105620
     4  C    0.155603
     7  C   -0.020602
    10  O   -0.020905
    12  O   -0.008477
 Electronic spatial extent (au):  <R**2>=            622.2822
 Charge=              0.0000 electrons
 Dipole moment (field-independent basis, Debye):
    X=              1.3934    Y=              1.8032    Z=              1.8200  Tot=              2.9164
 Quadrupole moment (field-independent basis, Debye-Ang):
   XX=            -33.3662   YY=            -32.4407   ZZ=            -30.9627
   XY=              4.5613   XZ=             -3.4030   YZ=             -1.6098
 Traceless Quadrupole moment (field-independent basis, Debye-Ang):
   XX=             -1.1096   YY=             -0.1841   ZZ=              1.2938
   XY=              4.5613   XZ=             -3.4030   YZ=             -1.6098
 Octapole moment (field-independent basis, Debye-Ang**2):
  XXX=             37.3992  YYY=             -1.7364  ZZZ=              0.7416  XYY=             -3.0056
  XXY=              8.0804  XXZ=             12.4327  XZZ=             -3.6778  YZZ=             -0.4978
  YYZ=              0.4224  XYZ=              2.9810
 Hexadecapole moment (field-independent basis, Debye-Ang**3):
 XXXX=           -550.3401 YYYY=            -96.8037 ZZZZ=            -58.4398 XXXY=             36.9220
 XXXZ=            -35.0274 YYYX=              3.2622 YYYZ=             -0.6936 ZZZX=             -2.5114
 ZZZY=             -1.9665 XXYY=           -118.7942 XXZZ=           -107.3113 YYZZ=            -23.8889
 XXYZ=             -9.9093 YYXZ=             -3.5627 ZZXY=              2.7546
 N-N= 1.845340413757D+02 E-N=-1.000625566901D+03  KE= 2.684918110452D+02
 No NMR shielding tensors so no spin-rotation constants.
 Leave Link  601 at Mon Nov 10 19:43:11 2025, MaxMem=    33554432 cpu:         0.0
 (Enter /opt/programs/gaussian/g09/d_pgi133/l9999.exe)
 1\1\GINC-EXADE5\SP\RM062X\6-311++G(d,p)\C3H8O2\APINTO\10-Nov-2025\0\\#
 p M062X/6-311++G(d,p)\\SP\\0,1\C,0,1.381939,0.002284,0.226169\H,0,1.34
 0542,0.409899,1.251009\H,0,1.622225,-1.068774,0.317412\C,0,0.024187,0.
 191685,-0.45058\H,0,-0.102927,-0.541828,-1.257381\H,0,0.019068,1.18261
 6,-0.917463\C,0,-1.148959,0.114873,0.528129\H,0,-1.139149,-0.84736,1.0
 68454\H,0,-1.051672,0.903288,1.282068\O,0,2.358342,0.693749,-0.545467\
 H,0,3.22366,0.527085,-0.150441\O,0,-2.4052,0.337435,-0.098495\H,0,-2.5
 3443,-0.363658,-0.750678\\Version=ES64L-G09RevD.01\State=1-A\HF=-269.5
 279544\RMSD=3.157e-09\Dipole=0.6272554,-0.8806935,0.383973\Quadrupole=
 -0.3616122,0.2189726,0.1426396,1.3026369,4.0481324,1.4008746\PG=C01 [X
 (C3H8O2)]\\@


 FROM WHENCE IT HAPPENS, THAT THEY WHICH TRUST TO BOOKS, DO AS THEY THAT CAST UP MANY LITTLE SUMMS INTO GREATER,
 WITHOUT CONSIDERING WETHER THOSE LITTLE SUMMES WERE RIGHTLY CAST UP OR NOT...
 AND AT LAST FINDING THE ERROUR VISIBLE, AND NOT MISTRUSTING THEIR FIRST GROUNDS,
 KNOW NOT WHICH WAY TO CLEERE THEMSELVES...
 BUT SPEND TIME IN FLUTTERING OVER THEIR BOOKES....
 AS BIRDS THAT ENTERING BY THE CHIMNEY, AND FINDING THEMSELVES INCLOSED IN A CHAMBER,
 FLUTTER AT THE FALSE LIGHT OF A GLASSE WINDOW,
 FOR WANT OF WIT TO CONSIDER WHICH WAY THEY CAME IN....
           LEVIATHAN
 Job cpu time:       0 days  0 hours  0 minutes 26.2 seconds.
 File lengths (MBytes):  RWF=     16 Int=      0 D2E=      0 Chk=      2 Scr=      1
 Normal termination of Gaussian 09 at Mon Nov 10 19:43:11 2025.
