 Entering Gaussian System, Link 0=g09
 Input=xba.com
 Output=xba.log
 Initial command:
 /opt/programs/gaussian/g09/d_pgi133/l1.exe "/scratch/users/apinto/lixo/Gau-1267417.inp" -scrdir="/scratch/users/apinto/lixo/"
 Entering Link 1 = /opt/programs/gaussian/g09/d_pgi133/l1.exe PID=   1267419.
  
 Copyright (c) 1988,1990,1992,1993,1995,1998,2003,2009,2013,
            Gaussian, Inc.  All Rights Reserved.
  
 This is part of the Gaussian(R) 09 program.  It is based on
 the Gaussian(R) 03 system (copyright 2003, Gaussian, Inc.),
 the Gaussian(R) 98 system (copyright 1998, Gaussian, Inc.),
 the Gaussian(R) 94 system (copyright 1995, Gaussian, Inc.),
 the Gaussian 92(TM) system (copyright 1992, Gaussian, Inc.),
 the Gaussian 90(TM) system (copyright 1990, Gaussian, Inc.),
 the Gaussian 88(TM) system (copyright 1988, Gaussian, Inc.),
 the Gaussian 86(TM) system (copyright 1986, Carnegie Mellon
 University), and the Gaussian 82(TM) system (copyright 1983,
 Carnegie Mellon University). Gaussian is a federally registered
 trademark of Gaussian, Inc.
  
 This software contains proprietary and confidential information,
 including trade secrets, belonging to Gaussian, Inc.
  
 This software is provided under written license and may be
 used, copied, transmitted, or stored only in accord with that
 written license.
  
 The following legend is applicable only to US Government
 contracts under FAR:
  
                    RESTRICTED RIGHTS LEGEND
  
 Use, reproduction and disclosure by the US Government is
 subject to restrictions as set forth in subparagraphs (a)
 and (c) of the Commercial Computer Software - Restricted
 Rights clause in FAR 52.227-19.
  
 Gaussian, Inc.
 340 Quinnipiac St., Bldg. 40, Wallingford CT 06492
  
  
 ---------------------------------------------------------------
 Warning -- This program may not be used in any manner that
 competes with the business of Gaussian, Inc. or will provide
 assistance to any competitor of Gaussian, Inc.  The licensee
 of this program is prohibited from giving any competitor of
 Gaussian, Inc. access to this program.  By using this program,
 the user acknowledges that Gaussian, Inc. is engaged in the
 business of creating and licensing software in the field of
 computational chemistry and represents and warrants to the
 licensee that it is not a competitor of Gaussian, Inc. and that
 it will not use this program in any manner prohibited above.
 ---------------------------------------------------------------
  

 Cite this work as:
 Gaussian 09, Revision D.01,
 M. J. Frisch, G. W. Trucks, H. B. Schlegel, G. E. Scuseria, 
 M. A. Robb, J. R. Cheeseman, G. Scalmani, V. Barone, B. Mennucci, 
 G. A. Petersson, H. Nakatsuji, M. Caricato, X. Li, H. P. Hratchian, 
 A. F. Izmaylov, J. Bloino, G. Zheng, J. L. Sonnenberg, M. Hada, 
 M. Ehara, K. Toyota, R. Fukuda, J. Hasegawa, M. Ishida, T. Nakajima, 
 Y. Honda, O. Kitao, H. Nakai, T. Vreven, J. A. Montgomery, Jr., 
 J. E. Peralta, F. Ogliaro, M. Bearpark, J. J. Heyd, E. Brothers, 
 K. N. Kudin, V. N. Staroverov, T. Keith, R. Kobayashi, J. Normand, 
 K. Raghavachari, A. Rendell, J. C. Burant, S. S. Iyengar, J. Tomasi, 
 M. Cossi, N. Rega, J. M. Millam, M. Klene, J. E. Knox, J. B. Cross, 
 V. Bakken, C. Adamo, J. Jaramillo, R. Gomperts, R. E. Stratmann, 
 O. Yazyev, A. J. Austin, R. Cammi, C. Pomelli, J. W. Ochterski, 
 R. L. Martin, K. Morokuma, V. G. Zakrzewski, G. A. Voth, 
 P. Salvador, J. J. Dannenberg, S. Dapprich, A. D. Daniels, 
 O. Farkas, J. B. Foresman, J. V. Ortiz, J. Cioslowski, 
 and D. J. Fox, Gaussian, Inc., Wallingford CT, 2013.
 
 ******************************************
 Gaussian 09:  ES64L-G09RevD.01 24-Apr-2013
                10-Nov-2025 
 ******************************************
 ----------------------
 #p M062X/6-311++G(d,p)
 ----------------------
 1/38=1/1;
 2/12=2,17=6,18=5,40=1/2;
 3/5=4,6=6,7=1111,11=2,16=1,25=1,30=1,74=-55/1,2,3;
 4//1;
 5/5=2,38=5/2;
 6/7=2,8=2,9=2,10=2,28=1/1;
 99/5=1,9=1/99;
 Leave Link    1 at Mon Nov 10 19:43:38 2025, MaxMem=           0 cpu:         0.0
 (Enter /opt/programs/gaussian/g09/d_pgi133/l101.exe)
 --
 SP
 --
 Symbolic Z-matrix:
 Charge =  0 Multiplicity = 1
 C                     1.38688  -0.04328   0.20277 
 H                     1.31087   0.22639   1.27042 
 H                     1.69796  -1.09867   0.16335 
 C                     0.02246   0.14406  -0.47156 
 H                    -0.14198  -0.62841  -1.23381 
 H                     0.03902   1.1071   -0.99226 
 C                    -1.13903   0.1567    0.52484 
 H                    -1.14539  -0.77251   1.12009 
 H                    -1.00739   0.98456   1.22979 
 O                     2.32641   0.8011   -0.455 
 H                     3.19371   0.64747  -0.05865 
 O                    -2.39803   0.3764   -0.096 
 H                    -2.55787  -0.35961  -0.70124 
 
 NAtoms=     13 NQM=       13 NQMF=       0 NMMI=      0 NMMIF=      0
                NMic=       0 NMicF=      0.
                    Isotopes and Nuclear Properties:
 (Nuclear quadrupole moments (NQMom) in fm**2, nuclear magnetic moments (NMagM)
  in nuclear magnetons)

  Atom         1           2           3           4           5           6           7           8           9          10
 IAtWgt=          12           1           1          12           1           1          12           1           1          16
 AtmWgt=  12.0000000   1.0078250   1.0078250  12.0000000   1.0078250   1.0078250  12.0000000   1.0078250   1.0078250  15.9949146
 NucSpn=           0           1           1           0           1           1           0           1           1           0
 AtZEff=   0.0000000   0.0000000   0.0000000   0.0000000   0.0000000   0.0000000   0.0000000   0.0000000   0.0000000   0.0000000
 NQMom=    0.0000000   0.0000000   0.0000000   0.0000000   0.0000000   0.0000000   0.0000000   0.0000000   0.0000000   0.0000000
 NMagM=    0.0000000   2.7928460   2.7928460   0.0000000   2.7928460   2.7928460   0.0000000   2.7928460   2.7928460   0.0000000
 AtZNuc=   6.0000000   1.0000000   1.0000000   6.0000000   1.0000000   1.0000000   6.0000000   1.0000000   1.0000000   8.0000000

  Atom        11          12          13
 IAtWgt=           1          16           1
 AtmWgt=   1.0078250  15.9949146   1.0078250
 NucSpn=           1           0           1
 AtZEff=   0.0000000   0.0000000   0.0000000
 NQMom=    0.0000000   0.0000000   0.0000000
 NMagM=    2.7928460   0.0000000   2.7928460
 AtZNuc=   1.0000000   8.0000000   1.0000000
 Leave Link  101 at Mon Nov 10 19:43:38 2025, MaxMem=    33554432 cpu:         0.0
 (Enter /opt/programs/gaussian/g09/d_pgi133/l202.exe)
                          Input orientation:                          
 ---------------------------------------------------------------------
 Center     Atomic      Atomic             Coordinates (Angstroms)
 Number     Number       Type             X           Y           Z
 ---------------------------------------------------------------------
      1          6           0        1.386877   -0.043278    0.202765
      2          1           0        1.310872    0.226390    1.270421
      3          1           0        1.697958   -1.098671    0.163352
      4          6           0        0.022464    0.144064   -0.471562
      5          1           0       -0.141982   -0.628410   -1.233809
      6          1           0        0.039020    1.107101   -0.992264
      7          6           0       -1.139031    0.156695    0.524842
      8          1           0       -1.145387   -0.772513    1.120091
      9          1           0       -1.007394    0.984561    1.229791
     10          8           0        2.326415    0.801098   -0.455001
     11          1           0        3.193711    0.647472   -0.058649
     12          8           0       -2.398030    0.376400   -0.096000
     13          1           0       -2.557868   -0.359614   -0.701242
 ---------------------------------------------------------------------
                    Distance matrix (angstroms):
                    1          2          3          4          5
     1  C    0.000000
     2  H    1.103806   0.000000
     3  H    1.100990   1.769526   0.000000
     4  C    1.533440   2.168243   2.180547   0.000000
     5  H    2.177966   3.018714   2.357665   1.097624   0.000000
     6  H    2.137331   2.740986   2.992149   1.094918   1.761563
     7  C    2.554199   2.561790   3.123320   1.530376   2.168721
     8  H    2.790274   2.655864   3.017671   2.176545   2.562895
     9  H    2.800673   2.439433   3.577160   2.159084   3.069192
    10  O    1.424205   2.082954   2.094383   2.395863   2.956860
    11  H    1.951953   2.342823   2.309887   3.237395   3.759750
    12  O    3.819805   3.955447   4.361217   2.460451   2.719192
    13  H    4.059348   4.381553   4.405200   2.639045   2.488450
                    6          7          8          9         10
     6  H    0.000000
     7  C    2.143055   0.000000
     8  H    3.065585   1.103535   0.000000
     9  H    2.459172   1.095282   1.765895   0.000000
    10  O    2.369486   3.658506   4.124388   3.739848   0.000000
    11  H    3.321893   4.399316   4.715247   4.407152   0.965867
    12  O    2.697485   1.420843   2.089974   2.015304   4.757061
    13  H    2.996627   1.944982   2.341547   2.817741   5.026341
                   11         12         13
    11  H    0.000000
    12  O    5.598432   0.000000
    13  H    5.874335   0.966221   0.000000
 Stoichiometry    C3H8O2
 Framework group  C1[X(C3H8O2)]
 Deg. of freedom    33
 Full point group                 C1      NOp   1
 Largest Abelian subgroup         C1      NOp   1
 Largest concise Abelian subgroup C1      NOp   1
                         Standard orientation:                         
 ---------------------------------------------------------------------
 Center     Atomic      Atomic             Coordinates (Angstroms)
 Number     Number       Type             X           Y           Z
 ---------------------------------------------------------------------
      1          6           0        1.290884    0.455286    0.223338
      2          1           0        1.165222    1.326185   -0.443094
      3          1           0        1.542256    0.851465    1.219348
      4          6           0       -0.016457   -0.344578    0.273470
      5          1           0       -0.178203   -0.759534    1.276679
      6          1           0        0.087675   -1.193890   -0.409662
      7          6           0       -1.234233    0.474397   -0.160528
      8          1           0       -1.330819    1.379947    0.462721
      9          1           0       -1.098460    0.812704   -1.193368
     10          8           0        2.316262   -0.401197   -0.270013
     11          1           0        3.147264    0.090917   -0.257505
     12          8           0       -2.437946   -0.280494   -0.157924
     13          1           0       -2.602628   -0.564898    0.750689
 ---------------------------------------------------------------------
 Rotational constants (GHZ):     18.7513832      2.0066184      1.9387330
 Leave Link  202 at Mon Nov 10 19:43:38 2025, MaxMem=    33554432 cpu:         0.0
 (Enter /opt/programs/gaussian/g09/d_pgi133/l301.exe)
 Standard basis: 6-311++G(d,p) (5D, 7F)
 Ernie: Thresh=  0.10000D-02 Tol=  0.10000D-05 Strict=F.
 There are   171 symmetry adapted cartesian basis functions of A   symmetry.
 There are   166 symmetry adapted basis functions of A   symmetry.
   166 basis functions,   252 primitive gaussians,   171 cartesian basis functions
    21 alpha electrons       21 beta electrons
       nuclear repulsion energy       184.6040609017 Hartrees.
 IExCor= 4336 DFT=T Ex+Corr=M062X ExCW=0 ScaHFX=  0.540000
 ScaDFX=  1.000000  1.000000  1.000000  1.000000 ScalE2=  1.000000  1.000000
 IRadAn=      0 IRanWt=     -1 IRanGd=            0 ICorTp=0 IEmpDi=  4
 NAtoms=   13 NActive=   13 NUniq=   13 SFac= 1.00D+00 NAtFMM=   60 NAOKFM=F Big=F
 Integral buffers will be    131072 words long.
 Raffenetti 2 integral format.
 Two-electron integral symmetry is turned on.
 Leave Link  301 at Mon Nov 10 19:43:38 2025, MaxMem=    33554432 cpu:         0.0
 (Enter /opt/programs/gaussian/g09/d_pgi133/l302.exe)
 NPDir=0 NMtPBC=     1 NCelOv=     1 NCel=       1 NClECP=     1 NCelD=      1
         NCelK=      1 NCelE2=     1 NClLst=     1 CellRange=     0.0.
 One-electron integrals computed using PRISM.
 NBasis=   166 RedAO= T EigKep=  4.23D-05  NBF=   166
 NBsUse=   166 1.00D-06 EigRej= -1.00D+00 NBFU=   166
 Precomputing XC quadrature grid using
 IXCGrd= 4 IRadAn=           0 IRanWt=          -1 IRanGd=           0 AccXCQ= 0.00D+00.
 Generated NRdTot=       0 NPtTot=           0 NUsed=           0 NTot=          32
 NSgBfM=   171   171   171   171   171 MxSgAt=    13 MxSgA2=    13.
 Leave Link  302 at Mon Nov 10 19:43:38 2025, MaxMem=    33554432 cpu:         0.1
 (Enter /opt/programs/gaussian/g09/d_pgi133/l303.exe)
 DipDrv:  MaxL=1.
 Leave Link  303 at Mon Nov 10 19:43:38 2025, MaxMem=    33554432 cpu:         0.0
 (Enter /opt/programs/gaussian/g09/d_pgi133/l401.exe)
 ExpMin= 3.60D-02 ExpMax= 8.59D+03 ExpMxC= 1.30D+03 IAcc=3 IRadAn=         5 AccDes= 0.00D+00
 Harris functional with IExCor= 1009 and IRadAn=       5 diagonalized for initial guess.
 HarFok:  IExCor= 1009 AccDes= 0.00D+00 IRadAn=         5 IDoV= 1 UseB2=F ITyADJ=14
 ICtDFT=  3500011 ScaDFX=  1.000000  1.000000  1.000000  1.000000
 FoFCou: FMM=F IPFlag=           0 FMFlag=      100000 FMFlg1=           0
         NFxFlg=           0 DoJE=T BraDBF=F KetDBF=T FulRan=T
         wScrn=  0.000000 ICntrl=     500 IOpCl=  0 I1Cent=   200000004 NGrid=           0
         NMat0=    1 NMatS0=      1 NMatT0=    0 NMatD0=    1 NMtDS0=    0 NMtDT0=    0
 Petite list used in FoFCou.
 Harris En= -269.440070867392    
 JPrj=0 DoOrth=F DoCkMO=F.
 Leave Link  401 at Mon Nov 10 19:43:39 2025, MaxMem=    33554432 cpu:         1.5
 (Enter /opt/programs/gaussian/g09/d_pgi133/l502.exe)
 Closed shell SCF:
 Using DIIS extrapolation, IDIIS=  1040.
 Integral symmetry usage will be decided dynamically.
 IVT=      108587 IEndB=      108587 NGot=    33554432 MDV=    33491898
 LenX=    33491898 LenY=    33462216
 Requested convergence on RMS density matrix=1.00D-08 within 128 cycles.
 Requested convergence on MAX density matrix=1.00D-06.
 Requested convergence on             energy=1.00D-06.
 No special actions if energy rises.
 Fock matrices will be formed incrementally for  20 cycles.

 Cycle   1  Pass 1  IDiag  1:
 FoFJK:  IHMeth= 1 ICntrl=       0 DoSepK=F KAlg= 0 I1Cent=   0 FoldK=F
 IRaf= 970000000 NMat=   1 IRICut=       1 DoRegI=T DoRafI=F ISym2E= 0.
 FoFCou: FMM=F IPFlag=           0 FMFlag=      100000 FMFlg1=           0
         NFxFlg=           0 DoJE=F BraDBF=F KetDBF=F FulRan=T
         wScrn=  0.000000 ICntrl=       0 IOpCl=  0 I1Cent=           0 NGrid=           0
         NMat0=    1 NMatS0=      1 NMatT0=    0 NMatD0=    1 NMtDS0=    0 NMtDT0=    0
 Symmetry not used in FoFCou.
 E= -269.358836355041    
 DIIS: error= 2.64D-02 at cycle   1 NSaved=   1.
 NSaved= 1 IEnMin= 1 EnMin= -269.358836355041     IErMin= 1 ErrMin= 2.64D-02
 ErrMax= 2.64D-02  0.00D+00 EMaxC= 1.00D-01 BMatC= 2.34D-01 BMatP= 2.34D-01
 IDIUse=3 WtCom= 7.36D-01 WtEn= 2.64D-01
 Coeff-Com:  0.100D+01
 Coeff-En:   0.100D+01
 Coeff:      0.100D+01
 Gap=     0.286 Goal=   None    Shift=    0.000
 GapD=    0.286 DampG=1.000 DampE=0.500 DampFc=0.5000 IDamp=-1.
 Damping current iteration by 5.00D-01
 RMSDP=6.63D-03 MaxDP=1.95D-01              OVMax= 1.32D-01

 Cycle   2  Pass 1  IDiag  1:
 RMSU=  3.29D-03    CP:  9.75D-01
 E= -269.439810738731     Delta-E=       -0.080974383690 Rises=F Damp=T
 DIIS: error= 7.29D-03 at cycle   2 NSaved=   2.
 NSaved= 2 IEnMin= 2 EnMin= -269.439810738731     IErMin= 2 ErrMin= 7.29D-03
 ErrMax= 7.29D-03  0.00D+00 EMaxC= 1.00D-01 BMatC= 1.52D-02 BMatP= 2.34D-01
 IDIUse=3 WtCom= 9.27D-01 WtEn= 7.29D-02
 Coeff-Com: -0.383D-01 0.104D+01
 Coeff-En:   0.000D+00 0.100D+01
 Coeff:     -0.355D-01 0.104D+01
 Gap=     0.352 Goal=   None    Shift=    0.000
 RMSDP=2.07D-03 MaxDP=9.39D-02 DE=-8.10D-02 OVMax= 7.54D-02

 Cycle   3  Pass 1  IDiag  1:
 RMSU=  1.97D-03    CP:  9.45D-01  8.60D-01
 E= -269.523792966945     Delta-E=       -0.083982228214 Rises=F Damp=F
 DIIS: error= 3.99D-03 at cycle   3 NSaved=   3.
 NSaved= 3 IEnMin= 3 EnMin= -269.523792966945     IErMin= 3 ErrMin= 3.99D-03
 ErrMax= 3.99D-03  0.00D+00 EMaxC= 1.00D-01 BMatC= 4.13D-03 BMatP= 1.52D-02
 IDIUse=3 WtCom= 9.60D-01 WtEn= 3.99D-02
 Coeff-Com: -0.768D-01 0.321D+00 0.755D+00
 Coeff-En:   0.000D+00 0.000D+00 0.100D+01
 Coeff:     -0.738D-01 0.309D+00 0.765D+00
 Gap=     0.345 Goal=   None    Shift=    0.000
 RMSDP=3.58D-04 MaxDP=8.36D-03 DE=-8.40D-02 OVMax= 1.08D-02

 Cycle   4  Pass 1  IDiag  1:
 RMSU=  3.17D-04    CP:  9.45D-01  9.11D-01  9.95D-01
 E= -269.525914253208     Delta-E=       -0.002121286263 Rises=F Damp=F
 DIIS: error= 1.70D-03 at cycle   4 NSaved=   4.
 NSaved= 4 IEnMin= 4 EnMin= -269.525914253208     IErMin= 4 ErrMin= 1.70D-03
 ErrMax= 1.70D-03  0.00D+00 EMaxC= 1.00D-01 BMatC= 8.30D-04 BMatP= 4.13D-03
 IDIUse=3 WtCom= 9.83D-01 WtEn= 1.70D-02
 Coeff-Com: -0.320D-01 0.834D-01 0.376D+00 0.573D+00
 Coeff-En:   0.000D+00 0.000D+00 0.140D+00 0.860D+00
 Coeff:     -0.315D-01 0.820D-01 0.372D+00 0.577D+00
 Gap=     0.343 Goal=   None    Shift=    0.000
 RMSDP=1.62D-04 MaxDP=3.62D-03 DE=-2.12D-03 OVMax= 4.80D-03

 Cycle   5  Pass 1  IDiag  1:
 RMSU=  9.76D-05    CP:  9.43D-01  8.98D-01  1.01D+00  6.41D-01
 E= -269.526599695044     Delta-E=       -0.000685441836 Rises=F Damp=F
 DIIS: error= 1.77D-04 at cycle   5 NSaved=   5.
 NSaved= 5 IEnMin= 5 EnMin= -269.526599695044     IErMin= 5 ErrMin= 1.77D-04
 ErrMax= 1.77D-04  0.00D+00 EMaxC= 1.00D-01 BMatC= 7.06D-06 BMatP= 8.30D-04
 IDIUse=3 WtCom= 9.98D-01 WtEn= 1.77D-03
 Coeff-Com: -0.336D-02 0.449D-02 0.460D-01 0.128D+00 0.825D+00
 Coeff-En:   0.000D+00 0.000D+00 0.000D+00 0.000D+00 0.100D+01
 Coeff:     -0.335D-02 0.448D-02 0.459D-01 0.128D+00 0.825D+00
 Gap=     0.343 Goal=   None    Shift=    0.000
 RMSDP=2.88D-05 MaxDP=1.01D-03 DE=-6.85D-04 OVMax= 5.43D-04

 Cycle   6  Pass 1  IDiag  1:
 RMSU=  2.04D-05    CP:  9.43D-01  8.94D-01  1.01D+00  6.72D-01  9.35D-01
 E= -269.526605695152     Delta-E=       -0.000006000109 Rises=F Damp=F
 DIIS: error= 2.54D-05 at cycle   6 NSaved=   6.
 NSaved= 6 IEnMin= 6 EnMin= -269.526605695152     IErMin= 6 ErrMin= 2.54D-05
 ErrMax= 2.54D-05  0.00D+00 EMaxC= 1.00D-01 BMatC= 1.71D-07 BMatP= 7.06D-06
 IDIUse=1 WtCom= 1.00D+00 WtEn= 0.00D+00
 Coeff-Com:  0.606D-03-0.183D-02-0.519D-02-0.872D-03 0.807D-01 0.927D+00
 Coeff:      0.606D-03-0.183D-02-0.519D-02-0.872D-03 0.807D-01 0.927D+00
 Gap=     0.343 Goal=   None    Shift=    0.000
 RMSDP=9.32D-06 MaxDP=2.92D-04 DE=-6.00D-06 OVMax= 1.66D-04

 Cycle   7  Pass 1  IDiag  1:
 RMSU=  5.21D-06    CP:  9.43D-01  8.92D-01  1.01D+00  6.76D-01  9.63D-01
                    CP:  1.10D+00
 E= -269.526605863950     Delta-E=       -0.000000168797 Rises=F Damp=F
 DIIS: error= 1.41D-05 at cycle   7 NSaved=   7.
 NSaved= 7 IEnMin= 7 EnMin= -269.526605863950     IErMin= 7 ErrMin= 1.41D-05
 ErrMax= 1.41D-05  0.00D+00 EMaxC= 1.00D-01 BMatC= 5.99D-08 BMatP= 1.71D-07
 IDIUse=1 WtCom= 1.00D+00 WtEn= 0.00D+00
 Coeff-Com:  0.586D-03-0.123D-02-0.651D-02-0.120D-01-0.409D-01 0.393D+00
 Coeff-Com:  0.667D+00
 Coeff:      0.586D-03-0.123D-02-0.651D-02-0.120D-01-0.409D-01 0.393D+00
 Coeff:      0.667D+00
 Gap=     0.343 Goal=   None    Shift=    0.000
 RMSDP=2.25D-06 MaxDP=5.18D-05 DE=-1.69D-07 OVMax= 5.05D-05

 Cycle   8  Pass 1  IDiag  1:
 RMSU=  9.71D-07    CP:  9.43D-01  8.91D-01  1.01D+00  6.76D-01  9.66D-01
                    CP:  1.16D+00  8.77D-01
 E= -269.526605917617     Delta-E=       -0.000000053668 Rises=F Damp=F
 DIIS: error= 2.52D-06 at cycle   8 NSaved=   8.
 NSaved= 8 IEnMin= 8 EnMin= -269.526605917617     IErMin= 8 ErrMin= 2.52D-06
 ErrMax= 2.52D-06  0.00D+00 EMaxC= 1.00D-01 BMatC= 2.42D-09 BMatP= 5.99D-08
 IDIUse=1 WtCom= 1.00D+00 WtEn= 0.00D+00
 Coeff-Com:  0.150D-03-0.294D-03-0.182D-02-0.376D-02-0.177D-01 0.799D-01
 Coeff-Com:  0.219D+00 0.725D+00
 Coeff:      0.150D-03-0.294D-03-0.182D-02-0.376D-02-0.177D-01 0.799D-01
 Coeff:      0.219D+00 0.725D+00
 Gap=     0.343 Goal=   None    Shift=    0.000
 RMSDP=6.32D-07 MaxDP=2.02D-05 DE=-5.37D-08 OVMax= 1.39D-05

 Cycle   9  Pass 1  IDiag  1:
 RMSU=  3.72D-07    CP:  9.43D-01  8.91D-01  1.01D+00  6.77D-01  9.67D-01
                    CP:  1.17D+00  9.24D-01  9.88D-01
 E= -269.526605919408     Delta-E=       -0.000000001791 Rises=F Damp=F
 DIIS: error= 1.14D-06 at cycle   9 NSaved=   9.
 NSaved= 9 IEnMin= 9 EnMin= -269.526605919408     IErMin= 9 ErrMin= 1.14D-06
 ErrMax= 1.14D-06  0.00D+00 EMaxC= 1.00D-01 BMatC= 3.77D-10 BMatP= 2.42D-09
 IDIUse=1 WtCom= 1.00D+00 WtEn= 0.00D+00
 Coeff-Com:  0.181D-05 0.928D-06-0.128D-03-0.389D-03-0.346D-02-0.498D-02
 Coeff-Com:  0.237D-01 0.299D+00 0.686D+00
 Coeff:      0.181D-05 0.928D-06-0.128D-03-0.389D-03-0.346D-02-0.498D-02
 Coeff:      0.237D-01 0.299D+00 0.686D+00
 Gap=     0.343 Goal=   None    Shift=    0.000
 RMSDP=1.47D-07 MaxDP=3.44D-06 DE=-1.79D-09 OVMax= 4.29D-06

 Cycle  10  Pass 1  IDiag  1:
 RMSU=  9.67D-08    CP:  9.43D-01  8.91D-01  1.01D+00  6.77D-01  9.66D-01
                    CP:  1.17D+00  9.33D-01  1.06D+00  9.54D-01
 E= -269.526605919698     Delta-E=       -0.000000000290 Rises=F Damp=F
 DIIS: error= 2.69D-07 at cycle  10 NSaved=  10.
 NSaved=10 IEnMin=10 EnMin= -269.526605919698     IErMin=10 ErrMin= 2.69D-07
 ErrMax= 2.69D-07  0.00D+00 EMaxC= 1.00D-01 BMatC= 2.77D-11 BMatP= 3.77D-10
 IDIUse=1 WtCom= 1.00D+00 WtEn= 0.00D+00
 Coeff-Com: -0.148D-04 0.306D-04 0.140D-03 0.251D-03 0.680D-03-0.974D-02
 Coeff-Com: -0.169D-01 0.142D-01 0.236D+00 0.775D+00
 Coeff:     -0.148D-04 0.306D-04 0.140D-03 0.251D-03 0.680D-03-0.974D-02
 Coeff:     -0.169D-01 0.142D-01 0.236D+00 0.775D+00
 Gap=     0.343 Goal=   None    Shift=    0.000
 RMSDP=5.66D-08 MaxDP=1.27D-06 DE=-2.90D-10 OVMax= 1.77D-06

 Cycle  11  Pass 1  IDiag  1:
 RMSU=  3.06D-08    CP:  9.43D-01  8.91D-01  1.01D+00  6.77D-01  9.66D-01
                    CP:  1.17D+00  9.40D-01  1.08D+00  1.00D+00  9.42D-01
 E= -269.526605919726     Delta-E=       -0.000000000028 Rises=F Damp=F
 DIIS: error= 5.51D-08 at cycle  11 NSaved=  11.
 NSaved=11 IEnMin=11 EnMin= -269.526605919726     IErMin=11 ErrMin= 5.51D-08
 ErrMax= 5.51D-08  0.00D+00 EMaxC= 1.00D-01 BMatC= 5.84D-13 BMatP= 2.77D-11
 IDIUse=1 WtCom= 1.00D+00 WtEn= 0.00D+00
 Coeff-Com: -0.735D-06 0.181D-05 0.169D-04 0.289D-04 0.177D-03-0.268D-03
 Coeff-Com: -0.245D-02-0.145D-01-0.127D-01 0.546D-01 0.975D+00
 Coeff:     -0.735D-06 0.181D-05 0.169D-04 0.289D-04 0.177D-03-0.268D-03
 Coeff:     -0.245D-02-0.145D-01-0.127D-01 0.546D-01 0.975D+00
 Gap=     0.343 Goal=   None    Shift=    0.000
 RMSDP=1.60D-08 MaxDP=5.14D-07 DE=-2.77D-11 OVMax= 5.95D-07

 Cycle  12  Pass 1  IDiag  1:
 RMSU=  9.64D-09    CP:  9.43D-01  8.91D-01  1.01D+00  6.77D-01  9.66D-01
                    CP:  1.17D+00  9.41D-01  1.08D+00  1.02D+00  9.88D-01
                    CP:  1.12D+00
 E= -269.526605919726     Delta-E=        0.000000000000 Rises=F Damp=F
 DIIS: error= 1.74D-08 at cycle  12 NSaved=  12.
 NSaved=12 IEnMin=11 EnMin= -269.526605919726     IErMin=12 ErrMin= 1.74D-08
 ErrMax= 1.74D-08  0.00D+00 EMaxC= 1.00D-01 BMatC= 7.70D-14 BMatP= 5.84D-13
 IDIUse=1 WtCom= 1.00D+00 WtEn= 0.00D+00
 Coeff-Com:  0.855D-06-0.163D-05-0.486D-05-0.100D-04-0.839D-05 0.576D-03
 Coeff-Com:  0.475D-03-0.496D-02-0.187D-01-0.351D-01 0.272D+00 0.786D+00
 Coeff:      0.855D-06-0.163D-05-0.486D-05-0.100D-04-0.839D-05 0.576D-03
 Coeff:      0.475D-03-0.496D-02-0.187D-01-0.351D-01 0.272D+00 0.786D+00
 Gap=     0.343 Goal=   None    Shift=    0.000
 RMSDP=3.33D-09 MaxDP=6.17D-08 DE= 2.27D-13 OVMax= 1.57D-07

 SCF Done:  E(RM062X) =  -269.526605920     A.U. after   12 cycles
            NFock= 12  Conv=0.33D-08     -V/T= 2.0039
 KE= 2.684910873609D+02 PE=-1.000774963651D+03 EE= 2.781532094691D+02
 Leave Link  502 at Mon Nov 10 19:44:04 2025, MaxMem=    33554432 cpu:        24.5
 (Enter /opt/programs/gaussian/g09/d_pgi133/l601.exe)
 Copying SCF densities to generalized density rwf, IOpCl= 0 IROHF=0.

 **********************************************************************

            Population analysis using the SCF density.

 **********************************************************************

 Orbital symmetries:
       Occupied  (A) (A) (A) (A) (A) (A) (A) (A) (A) (A) (A) (A)
                 (A) (A) (A) (A) (A) (A) (A) (A) (A)
       Virtual   (A) (A) (A) (A) (A) (A) (A) (A) (A) (A) (A) (A)
                 (A) (A) (A) (A) (A) (A) (A) (A) (A) (A) (A) (A)
                 (A) (A) (A) (A) (A) (A) (A) (A) (A) (A) (A) (A)
                 (A) (A) (A) (A) (A) (A) (A) (A) (A) (A) (A) (A)
                 (A) (A) (A) (A) (A) (A) (A) (A) (A) (A) (A) (A)
                 (A) (A) (A) (A) (A) (A) (A) (A) (A) (A) (A) (A)
                 (A) (A) (A) (A) (A) (A) (A) (A) (A) (A) (A) (A)
                 (A) (A) (A) (A) (A) (A) (A) (A) (A) (A) (A) (A)
                 (A) (A) (A) (A) (A) (A) (A) (A) (A) (A) (A) (A)
                 (A) (A) (A) (A) (A) (A) (A) (A) (A) (A) (A) (A)
                 (A) (A) (A) (A) (A) (A) (A) (A) (A) (A) (A) (A)
                 (A) (A) (A) (A) (A) (A) (A) (A) (A) (A) (A) (A)
                 (A)
 The electronic state is 1-A.
 Alpha  occ. eigenvalues --  -19.62899 -19.62454 -10.59437 -10.58845 -10.53746
 Alpha  occ. eigenvalues --   -1.15047  -1.14622  -0.87798  -0.76296  -0.68901
 Alpha  occ. eigenvalues --   -0.60975  -0.57468  -0.55673  -0.51346  -0.48965
 Alpha  occ. eigenvalues --   -0.46372  -0.44013  -0.41245  -0.39275  -0.35713
 Alpha  occ. eigenvalues --   -0.35034
 Alpha virt. eigenvalues --   -0.00769   0.00108   0.01429   0.02016   0.03397
 Alpha virt. eigenvalues --    0.04787   0.05374   0.05598   0.08015   0.09379
 Alpha virt. eigenvalues --    0.09633   0.11295   0.12000   0.12582   0.13010
 Alpha virt. eigenvalues --    0.13349   0.14177   0.14820   0.15723   0.17176
 Alpha virt. eigenvalues --    0.20100   0.20224   0.21365   0.22217   0.22639
 Alpha virt. eigenvalues --    0.23882   0.25046   0.26407   0.27005   0.29036
 Alpha virt. eigenvalues --    0.29695   0.31258   0.32085   0.32643   0.33509
 Alpha virt. eigenvalues --    0.35243   0.36501   0.37558   0.39842   0.40888
 Alpha virt. eigenvalues --    0.47020   0.47854   0.48898   0.54749   0.57164
 Alpha virt. eigenvalues --    0.59784   0.60557   0.62311   0.64670   0.67755
 Alpha virt. eigenvalues --    0.69237   0.69817   0.71659   0.72030   0.74538
 Alpha virt. eigenvalues --    0.76566   0.79103   0.92302   0.95932   0.97688
 Alpha virt. eigenvalues --    1.02410   1.05873   1.12774   1.15220   1.19791
 Alpha virt. eigenvalues --    1.21244   1.24842   1.28159   1.32036   1.34576
 Alpha virt. eigenvalues --    1.35732   1.42505   1.45114   1.46325   1.54097
 Alpha virt. eigenvalues --    1.55915   1.57075   1.59906   1.60362   1.62375
 Alpha virt. eigenvalues --    1.64382   1.66170   1.68755   1.69996   1.72932
 Alpha virt. eigenvalues --    1.76276   1.79884   1.83942   1.87467   1.88769
 Alpha virt. eigenvalues --    1.95014   2.03192   2.05399   2.09837   2.10250
 Alpha virt. eigenvalues --    2.13658   2.14182   2.19873   2.27159   2.32245
 Alpha virt. eigenvalues --    2.36603   2.47625   2.49489   2.52029   2.54740
 Alpha virt. eigenvalues --    2.55737   2.59552   2.61521   2.63716   2.68863
 Alpha virt. eigenvalues --    2.72793   2.74540   2.82206   2.86727   2.93711
 Alpha virt. eigenvalues --    2.96375   3.01925   3.11509   3.16025   3.18527
 Alpha virt. eigenvalues --    3.22319   3.26762   3.30961   3.35151   3.47036
 Alpha virt. eigenvalues --    3.75925   3.79889   3.85054   3.91542   3.94033
 Alpha virt. eigenvalues --    4.05208   4.07695   4.19046   4.35061   5.16586
 Alpha virt. eigenvalues --    5.19809   5.48038   5.50447   5.73322   5.74529
 Alpha virt. eigenvalues --   23.89109  23.91722  23.97324  50.01578  50.02764
          Condensed to atoms (all electrons):
               1          2          3          4          5          6
     1  C    5.645644   0.438277   0.335049  -0.154025  -0.027611  -0.072408
     2  H    0.438277   0.676652  -0.098650  -0.093406   0.034061  -0.011605
     3  H    0.335049  -0.098650   0.649350   0.024557  -0.037785   0.010152
     4  C   -0.154025  -0.093406   0.024557   5.748796   0.351178   0.514730
     5  H   -0.027611   0.034061  -0.037785   0.351178   0.647579  -0.072026
     6  H   -0.072408  -0.011605   0.010152   0.514730  -0.072026   0.502046
     7  C   -0.014276  -0.026103   0.018782   0.050976  -0.010620  -0.074122
     8  H    0.021317  -0.019563  -0.003436   0.048877  -0.045789   0.023202
     9  H   -0.026879   0.018639  -0.002999  -0.059969   0.024131  -0.028559
    10  O    0.206096  -0.071433  -0.047474  -0.127775   0.021544  -0.009445
    11  H    0.022463  -0.002559  -0.008223  -0.016963  -0.003142   0.002523
    12  O    0.037932   0.002280  -0.001998  -0.104825  -0.024430   0.017498
    13  H    0.001133   0.000324   0.000401  -0.003172   0.011118  -0.004625
               7          8          9         10         11         12
     1  C   -0.014276   0.021317  -0.026879   0.206096   0.022463   0.037932
     2  H   -0.026103  -0.019563   0.018639  -0.071433  -0.002559   0.002280
     3  H    0.018782  -0.003436  -0.002999  -0.047474  -0.008223  -0.001998
     4  C    0.050976   0.048877  -0.059969  -0.127775  -0.016963  -0.104825
     5  H   -0.010620  -0.045789   0.024131   0.021544  -0.003142  -0.024430
     6  H   -0.074122   0.023202  -0.028559  -0.009445   0.002523   0.017498
     7  C    5.489703   0.265025   0.463062   0.009161   0.002903   0.229761
     8  H    0.265025   0.692007  -0.095004  -0.001626   0.001706  -0.025756
     9  H    0.463062  -0.095004   0.587758  -0.003161  -0.001527  -0.086210
    10  O    0.009161  -0.001626  -0.003161   8.065500   0.241136  -0.001412
    11  H    0.002903   0.001706  -0.001527   0.241136   0.504626  -0.000046
    12  O    0.229761  -0.025756  -0.086210  -0.001412  -0.000046   7.959954
    13  H   -0.029430  -0.019128   0.018307  -0.000244  -0.000032   0.257637
              13
     1  C    0.001133
     2  H    0.000324
     3  H    0.000401
     4  C   -0.003172
     5  H    0.011118
     6  H   -0.004625
     7  C   -0.029430
     8  H   -0.019128
     9  H    0.018307
    10  O   -0.000244
    11  H   -0.000032
    12  O    0.257637
    13  H    0.517446
 Mulliken charges:
               1
     1  C   -0.412714
     2  H    0.153085
     3  H    0.162274
     4  C   -0.178978
     5  H    0.131792
     6  H    0.202637
     7  C   -0.374822
     8  H    0.158168
     9  H    0.192410
    10  O   -0.280867
    11  H    0.257135
    12  O   -0.260385
    13  H    0.250265
 Sum of Mulliken charges =   0.00000
 Mulliken charges with hydrogens summed into heavy atoms:
               1
     1  C   -0.097355
     4  C    0.155451
     7  C   -0.024244
    10  O   -0.023732
    12  O   -0.010120
 Electronic spatial extent (au):  <R**2>=            618.3454
 Charge=              0.0000 electrons
 Dipole moment (field-independent basis, Debye):
    X=              1.3924    Y=              1.9079    Z=              1.9270  Tot=              3.0483
 Quadrupole moment (field-independent basis, Debye-Ang):
   XX=            -32.7641   YY=            -32.7337   ZZ=            -30.9354
   XY=              4.0501   XZ=             -3.6397   YZ=             -1.5347
 Traceless Quadrupole moment (field-independent basis, Debye-Ang):
   XX=             -0.6197   YY=             -0.5893   ZZ=              1.2090
   XY=              4.0501   XZ=             -3.6397   YZ=             -1.5347
 Octapole moment (field-independent basis, Debye-Ang**2):
  XXX=             35.8097  YYY=             -1.3921  ZZZ=              0.6517  XYY=             -2.2394
  XXY=              8.5960  XXZ=             12.4329  XZZ=             -3.7806  YZZ=             -0.4177
  YYZ=              0.1148  XYZ=              2.3014
 Hexadecapole moment (field-independent basis, Debye-Ang**3):
 XXXX=           -537.0655 YYYY=            -94.4772 ZZZZ=            -62.8626 XXXY=             33.0523
 XXXZ=            -42.4363 YYYX=              2.0969 YYYZ=              0.0086 ZZZX=             -2.7093
 ZZZY=             -1.9217 XXYY=           -119.1910 XXZZ=           -105.7041 YYZZ=            -25.2185
 XXYZ=             -9.3587 YYXZ=             -3.3867 ZZXY=              2.6671
 N-N= 1.846040609017D+02 E-N=-1.000774964381D+03  KE= 2.684910873609D+02
 No NMR shielding tensors so no spin-rotation constants.
 Leave Link  601 at Mon Nov 10 19:44:04 2025, MaxMem=    33554432 cpu:         0.0
 (Enter /opt/programs/gaussian/g09/d_pgi133/l9999.exe)
 1\1\GINC-EXADE5\SP\RM062X\6-311++G(d,p)\C3H8O2\APINTO\10-Nov-2025\0\\#
 p M062X/6-311++G(d,p)\\SP\\0,1\C,0,1.386877,-0.043278,0.202765\H,0,1.3
 10872,0.22639,1.270421\H,0,1.697958,-1.098671,0.163352\C,0,0.022464,0.
 144064,-0.471562\H,0,-0.141982,-0.62841,-1.233809\H,0,0.03902,1.107101
 ,-0.992264\C,0,-1.139031,0.156695,0.524842\H,0,-1.145387,-0.772513,1.1
 20091\H,0,-1.007394,0.984561,1.229791\O,0,2.326415,0.801098,-0.455001\
 H,0,3.193711,0.647472,-0.058649\O,0,-2.39803,0.3764,-0.096\H,0,-2.5578
 68,-0.359614,-0.701242\\Version=ES64L-G09RevD.01\State=1-A\HF=-269.526
 6059\RMSD=3.333e-09\Dipole=0.627487,-0.9562679,0.3607794\Quadrupole=-0
 .1492277,0.0364964,0.1127313,1.3902408,3.7883292,1.4124382\PG=C01 [X(C
 3H8O2)]\\@


 WE THE UNWILLING
 LED BY THE UNQUALIFIED
 HAVE BEEN DOING THE UNBELIEVABLE SO LONG WITH SO LITTLE
 THAT WE NOW ATTEMPT THE IMPOSSIBLE WITH NOTHING.

                                    -- ANONYMOUS
 Job cpu time:       0 days  0 hours  0 minutes 26.2 seconds.
 File lengths (MBytes):  RWF=     16 Int=      0 D2E=      0 Chk=      2 Scr=      1
 Normal termination of Gaussian 09 at Mon Nov 10 19:44:04 2025.
