 Entering Gaussian System, Link 0=g09
 Input=xbb.com
 Output=xbb.log
 Initial command:
 /opt/programs/gaussian/g09/d_pgi133/l1.exe "/scratch/users/apinto/lixo/Gau-1267637.inp" -scrdir="/scratch/users/apinto/lixo/"
 Entering Link 1 = /opt/programs/gaussian/g09/d_pgi133/l1.exe PID=   1267639.
  
 Copyright (c) 1988,1990,1992,1993,1995,1998,2003,2009,2013,
            Gaussian, Inc.  All Rights Reserved.
  
 This is part of the Gaussian(R) 09 program.  It is based on
 the Gaussian(R) 03 system (copyright 2003, Gaussian, Inc.),
 the Gaussian(R) 98 system (copyright 1998, Gaussian, Inc.),
 the Gaussian(R) 94 system (copyright 1995, Gaussian, Inc.),
 the Gaussian 92(TM) system (copyright 1992, Gaussian, Inc.),
 the Gaussian 90(TM) system (copyright 1990, Gaussian, Inc.),
 the Gaussian 88(TM) system (copyright 1988, Gaussian, Inc.),
 the Gaussian 86(TM) system (copyright 1986, Carnegie Mellon
 University), and the Gaussian 82(TM) system (copyright 1983,
 Carnegie Mellon University). Gaussian is a federally registered
 trademark of Gaussian, Inc.
  
 This software contains proprietary and confidential information,
 including trade secrets, belonging to Gaussian, Inc.
  
 This software is provided under written license and may be
 used, copied, transmitted, or stored only in accord with that
 written license.
  
 The following legend is applicable only to US Government
 contracts under FAR:
  
                    RESTRICTED RIGHTS LEGEND
  
 Use, reproduction and disclosure by the US Government is
 subject to restrictions as set forth in subparagraphs (a)
 and (c) of the Commercial Computer Software - Restricted
 Rights clause in FAR 52.227-19.
  
 Gaussian, Inc.
 340 Quinnipiac St., Bldg. 40, Wallingford CT 06492
  
  
 ---------------------------------------------------------------
 Warning -- This program may not be used in any manner that
 competes with the business of Gaussian, Inc. or will provide
 assistance to any competitor of Gaussian, Inc.  The licensee
 of this program is prohibited from giving any competitor of
 Gaussian, Inc. access to this program.  By using this program,
 the user acknowledges that Gaussian, Inc. is engaged in the
 business of creating and licensing software in the field of
 computational chemistry and represents and warrants to the
 licensee that it is not a competitor of Gaussian, Inc. and that
 it will not use this program in any manner prohibited above.
 ---------------------------------------------------------------
  

 Cite this work as:
 Gaussian 09, Revision D.01,
 M. J. Frisch, G. W. Trucks, H. B. Schlegel, G. E. Scuseria, 
 M. A. Robb, J. R. Cheeseman, G. Scalmani, V. Barone, B. Mennucci, 
 G. A. Petersson, H. Nakatsuji, M. Caricato, X. Li, H. P. Hratchian, 
 A. F. Izmaylov, J. Bloino, G. Zheng, J. L. Sonnenberg, M. Hada, 
 M. Ehara, K. Toyota, R. Fukuda, J. Hasegawa, M. Ishida, T. Nakajima, 
 Y. Honda, O. Kitao, H. Nakai, T. Vreven, J. A. Montgomery, Jr., 
 J. E. Peralta, F. Ogliaro, M. Bearpark, J. J. Heyd, E. Brothers, 
 K. N. Kudin, V. N. Staroverov, T. Keith, R. Kobayashi, J. Normand, 
 K. Raghavachari, A. Rendell, J. C. Burant, S. S. Iyengar, J. Tomasi, 
 M. Cossi, N. Rega, J. M. Millam, M. Klene, J. E. Knox, J. B. Cross, 
 V. Bakken, C. Adamo, J. Jaramillo, R. Gomperts, R. E. Stratmann, 
 O. Yazyev, A. J. Austin, R. Cammi, C. Pomelli, J. W. Ochterski, 
 R. L. Martin, K. Morokuma, V. G. Zakrzewski, G. A. Voth, 
 P. Salvador, J. J. Dannenberg, S. Dapprich, A. D. Daniels, 
 O. Farkas, J. B. Foresman, J. V. Ortiz, J. Cioslowski, 
 and D. J. Fox, Gaussian, Inc., Wallingford CT, 2013.
 
 ******************************************
 Gaussian 09:  ES64L-G09RevD.01 24-Apr-2013
                10-Nov-2025 
 ******************************************
 ----------------------
 #p M062X/6-311++G(d,p)
 ----------------------
 1/38=1/1;
 2/12=2,17=6,18=5,40=1/2;
 3/5=4,6=6,7=1111,11=2,16=1,25=1,30=1,74=-55/1,2,3;
 4//1;
 5/5=2,38=5/2;
 6/7=2,8=2,9=2,10=2,28=1/1;
 99/5=1,9=1/99;
 Leave Link    1 at Mon Nov 10 19:44:04 2025, MaxMem=           0 cpu:         0.0
 (Enter /opt/programs/gaussian/g09/d_pgi133/l101.exe)
 --
 SP
 --
 Symbolic Z-matrix:
 Charge =  0 Multiplicity = 1
 C                     1.38955  -0.06552   0.18932 
 H                     1.30169   0.13064   1.27191 
 H                     1.73613  -1.1049    0.08287 
 C                     0.0209    0.12076  -0.48207 
 H                    -0.1623   -0.67407  -1.21647 
 H                     0.0472    1.06547  -1.03449 
 C                    -1.13184   0.17835   0.52252 
 H                    -1.14445  -0.73387   1.14353 
 H                    -0.98324   1.02377   1.20275 
 O                     2.30527   0.84888  -0.4066 
 H                     3.1711    0.70911  -0.00177 
 O                    -2.39369   0.3968   -0.09321 
 H                    -2.5687   -0.35414  -0.67556 
 
 NAtoms=     13 NQM=       13 NQMF=       0 NMMI=      0 NMMIF=      0
                NMic=       0 NMicF=      0.
                    Isotopes and Nuclear Properties:
 (Nuclear quadrupole moments (NQMom) in fm**2, nuclear magnetic moments (NMagM)
  in nuclear magnetons)

  Atom         1           2           3           4           5           6           7           8           9          10
 IAtWgt=          12           1           1          12           1           1          12           1           1          16
 AtmWgt=  12.0000000   1.0078250   1.0078250  12.0000000   1.0078250   1.0078250  12.0000000   1.0078250   1.0078250  15.9949146
 NucSpn=           0           1           1           0           1           1           0           1           1           0
 AtZEff=   0.0000000   0.0000000   0.0000000   0.0000000   0.0000000   0.0000000   0.0000000   0.0000000   0.0000000   0.0000000
 NQMom=    0.0000000   0.0000000   0.0000000   0.0000000   0.0000000   0.0000000   0.0000000   0.0000000   0.0000000   0.0000000
 NMagM=    0.0000000   2.7928460   2.7928460   0.0000000   2.7928460   2.7928460   0.0000000   2.7928460   2.7928460   0.0000000
 AtZNuc=   6.0000000   1.0000000   1.0000000   6.0000000   1.0000000   1.0000000   6.0000000   1.0000000   1.0000000   8.0000000

  Atom        11          12          13
 IAtWgt=           1          16           1
 AtmWgt=   1.0078250  15.9949146   1.0078250
 NucSpn=           1           0           1
 AtZEff=   0.0000000   0.0000000   0.0000000
 NQMom=    0.0000000   0.0000000   0.0000000
 NMagM=    2.7928460   0.0000000   2.7928460
 AtZNuc=   1.0000000   8.0000000   1.0000000
 Leave Link  101 at Mon Nov 10 19:44:04 2025, MaxMem=    33554432 cpu:         0.0
 (Enter /opt/programs/gaussian/g09/d_pgi133/l202.exe)
                          Input orientation:                          
 ---------------------------------------------------------------------
 Center     Atomic      Atomic             Coordinates (Angstroms)
 Number     Number       Type             X           Y           Z
 ---------------------------------------------------------------------
      1          6           0        1.389553   -0.065517    0.189324
      2          1           0        1.301691    0.130644    1.271908
      3          1           0        1.736130   -1.104902    0.082865
      4          6           0        0.020903    0.120764   -0.482065
      5          1           0       -0.162296   -0.674069   -1.216467
      6          1           0        0.047196    1.065466   -1.034488
      7          6           0       -1.131844    0.178354    0.522520
      8          1           0       -1.144446   -0.733872    1.143534
      9          1           0       -0.983242    1.023774    1.202749
     10          8           0        2.305275    0.848881   -0.406604
     11          1           0        3.171104    0.709107   -0.001774
     12          8           0       -2.393694    0.396799   -0.093213
     13          1           0       -2.568704   -0.354136   -0.675556
 ---------------------------------------------------------------------
                    Distance matrix (angstroms):
                    1          2          3          4          5
     1  C    0.000000
     2  H    1.103715   0.000000
     3  H    1.100804   1.768936   0.000000
     4  C    1.535795   2.171851   2.182523   0.000000
     5  H    2.180555   2.997137   2.340492   1.097574   0.000000
     6  H    2.139804   2.786954   2.968413   1.094680   1.761529
     7  C    2.554982   2.546753   3.172588   1.530142   2.165808
     8  H    2.788972   2.597586   3.091990   2.175089   2.556912
     9  H    2.800668   2.454258   3.630480   2.159243   3.067447
    10  O    1.424711   2.083374   2.093030   2.398792   3.010675
    11  H    1.952046   2.334864   2.314507   3.240462   3.807914
    12  O    3.821848   3.948451   4.397904   2.461235   2.718013
    13  H    4.061910   4.359769   4.435138   2.639893   2.487115
                    6          7          8          9         10
     6  H    0.000000
     7  C    2.145082   0.000000
     8  H    3.066172   1.103618   0.000000
     9  H    2.463487   1.095230   1.766016   0.000000
    10  O    2.353735   3.623074   4.099830   3.665372   0.000000
    11  H    3.309425   4.367144   4.692323   4.336875   0.965963
    12  O    2.700196   1.420954   2.090115   2.015438   4.731057
    13  H    2.997838   1.945122   2.341324   2.817864   5.027450
                   11         12         13
    11  H    0.000000
    12  O    5.574305   0.000000
    13  H    5.876212   0.966258   0.000000
 Stoichiometry    C3H8O2
 Framework group  C1[X(C3H8O2)]
 Deg. of freedom    33
 Full point group                 C1      NOp   1
 Largest Abelian subgroup         C1      NOp   1
 Largest concise Abelian subgroup C1      NOp   1
                         Standard orientation:                         
 ---------------------------------------------------------------------
 Center     Atomic      Atomic             Coordinates (Angstroms)
 Number     Number       Type             X           Y           Z
 ---------------------------------------------------------------------
      1          6           0        1.296609    0.450999    0.248147
      2          1           0        1.161384    1.343003   -0.387644
      3          1           0        1.587212    0.814254    1.245827
      4          6           0       -0.020138   -0.336160    0.320418
      5          1           0       -0.209063   -0.682932    1.344491
      6          1           0        0.091376   -1.228970   -0.303103
      7          6           0       -1.220673    0.464214   -0.188945
      8          1           0       -1.320388    1.406595    0.376694
      9          1           0       -1.060325    0.738241   -1.237146
     10          8           0        2.295313   -0.402695   -0.302850
     11          1           0        3.128114    0.086408   -0.320316
     12          8           0       -2.432123   -0.278064   -0.166032
     13          1           0       -2.618622   -0.504851    0.754533
 ---------------------------------------------------------------------
 Rotational constants (GHZ):     18.2432642      2.0155073      1.9581495
 Leave Link  202 at Mon Nov 10 19:44:04 2025, MaxMem=    33554432 cpu:         0.0
 (Enter /opt/programs/gaussian/g09/d_pgi133/l301.exe)
 Standard basis: 6-311++G(d,p) (5D, 7F)
 Ernie: Thresh=  0.10000D-02 Tol=  0.10000D-05 Strict=F.
 There are   171 symmetry adapted cartesian basis functions of A   symmetry.
 There are   166 symmetry adapted basis functions of A   symmetry.
   166 basis functions,   252 primitive gaussians,   171 cartesian basis functions
    21 alpha electrons       21 beta electrons
       nuclear repulsion energy       184.6662752677 Hartrees.
 IExCor= 4336 DFT=T Ex+Corr=M062X ExCW=0 ScaHFX=  0.540000
 ScaDFX=  1.000000  1.000000  1.000000  1.000000 ScalE2=  1.000000  1.000000
 IRadAn=      0 IRanWt=     -1 IRanGd=            0 ICorTp=0 IEmpDi=  4
 NAtoms=   13 NActive=   13 NUniq=   13 SFac= 1.00D+00 NAtFMM=   60 NAOKFM=F Big=F
 Integral buffers will be    131072 words long.
 Raffenetti 2 integral format.
 Two-electron integral symmetry is turned on.
 Leave Link  301 at Mon Nov 10 19:44:04 2025, MaxMem=    33554432 cpu:         0.0
 (Enter /opt/programs/gaussian/g09/d_pgi133/l302.exe)
 NPDir=0 NMtPBC=     1 NCelOv=     1 NCel=       1 NClECP=     1 NCelD=      1
         NCelK=      1 NCelE2=     1 NClLst=     1 CellRange=     0.0.
 One-electron integrals computed using PRISM.
 NBasis=   166 RedAO= T EigKep=  4.22D-05  NBF=   166
 NBsUse=   166 1.00D-06 EigRej= -1.00D+00 NBFU=   166
 Precomputing XC quadrature grid using
 IXCGrd= 4 IRadAn=           0 IRanWt=          -1 IRanGd=           0 AccXCQ= 0.00D+00.
 Generated NRdTot=       0 NPtTot=           0 NUsed=           0 NTot=          32
 NSgBfM=   171   171   171   171   171 MxSgAt=    13 MxSgA2=    13.
 Leave Link  302 at Mon Nov 10 19:44:04 2025, MaxMem=    33554432 cpu:         0.1
 (Enter /opt/programs/gaussian/g09/d_pgi133/l303.exe)
 DipDrv:  MaxL=1.
 Leave Link  303 at Mon Nov 10 19:44:04 2025, MaxMem=    33554432 cpu:         0.0
 (Enter /opt/programs/gaussian/g09/d_pgi133/l401.exe)
 ExpMin= 3.60D-02 ExpMax= 8.59D+03 ExpMxC= 1.30D+03 IAcc=3 IRadAn=         5 AccDes= 0.00D+00
 Harris functional with IExCor= 1009 and IRadAn=       5 diagonalized for initial guess.
 HarFok:  IExCor= 1009 AccDes= 0.00D+00 IRadAn=         5 IDoV= 1 UseB2=F ITyADJ=14
 ICtDFT=  3500011 ScaDFX=  1.000000  1.000000  1.000000  1.000000
 FoFCou: FMM=F IPFlag=           0 FMFlag=      100000 FMFlg1=           0
         NFxFlg=           0 DoJE=T BraDBF=F KetDBF=T FulRan=T
         wScrn=  0.000000 ICntrl=     500 IOpCl=  0 I1Cent=   200000004 NGrid=           0
         NMat0=    1 NMatS0=      1 NMatT0=    0 NMatD0=    1 NMtDS0=    0 NMtDT0=    0
 Petite list used in FoFCou.
 Harris En= -269.439553564000    
 JPrj=0 DoOrth=F DoCkMO=F.
 Leave Link  401 at Mon Nov 10 19:44:05 2025, MaxMem=    33554432 cpu:         1.5
 (Enter /opt/programs/gaussian/g09/d_pgi133/l502.exe)
 Closed shell SCF:
 Using DIIS extrapolation, IDIIS=  1040.
 Integral symmetry usage will be decided dynamically.
 IVT=      108587 IEndB=      108587 NGot=    33554432 MDV=    33491898
 LenX=    33491898 LenY=    33462216
 Requested convergence on RMS density matrix=1.00D-08 within 128 cycles.
 Requested convergence on MAX density matrix=1.00D-06.
 Requested convergence on             energy=1.00D-06.
 No special actions if energy rises.
 Fock matrices will be formed incrementally for  20 cycles.

 Cycle   1  Pass 1  IDiag  1:
 FoFJK:  IHMeth= 1 ICntrl=       0 DoSepK=F KAlg= 0 I1Cent=   0 FoldK=F
 IRaf= 970000000 NMat=   1 IRICut=       1 DoRegI=T DoRafI=F ISym2E= 0.
 FoFCou: FMM=F IPFlag=           0 FMFlag=      100000 FMFlg1=           0
         NFxFlg=           0 DoJE=F BraDBF=F KetDBF=F FulRan=T
         wScrn=  0.000000 ICntrl=       0 IOpCl=  0 I1Cent=           0 NGrid=           0
         NMat0=    1 NMatS0=      1 NMatT0=    0 NMatD0=    1 NMtDS0=    0 NMtDT0=    0
 Symmetry not used in FoFCou.
 E= -269.358277621464    
 DIIS: error= 2.45D-02 at cycle   1 NSaved=   1.
 NSaved= 1 IEnMin= 1 EnMin= -269.358277621464     IErMin= 1 ErrMin= 2.45D-02
 ErrMax= 2.45D-02  0.00D+00 EMaxC= 1.00D-01 BMatC= 2.34D-01 BMatP= 2.34D-01
 IDIUse=3 WtCom= 7.55D-01 WtEn= 2.45D-01
 Coeff-Com:  0.100D+01
 Coeff-En:   0.100D+01
 Coeff:      0.100D+01
 Gap=     0.284 Goal=   None    Shift=    0.000
 GapD=    0.284 DampG=1.000 DampE=0.500 DampFc=0.5000 IDamp=-1.
 Damping current iteration by 5.00D-01
 RMSDP=6.55D-03 MaxDP=1.87D-01              OVMax= 1.32D-01

 Cycle   2  Pass 1  IDiag  1:
 RMSU=  3.25D-03    CP:  9.73D-01
 E= -269.439164359158     Delta-E=       -0.080886737694 Rises=F Damp=T
 DIIS: error= 7.26D-03 at cycle   2 NSaved=   2.
 NSaved= 2 IEnMin= 2 EnMin= -269.439164359158     IErMin= 2 ErrMin= 7.26D-03
 ErrMax= 7.26D-03  0.00D+00 EMaxC= 1.00D-01 BMatC= 1.52D-02 BMatP= 2.34D-01
 IDIUse=3 WtCom= 9.27D-01 WtEn= 7.26D-02
 Coeff-Com: -0.375D-01 0.104D+01
 Coeff-En:   0.000D+00 0.100D+01
 Coeff:     -0.348D-01 0.103D+01
 Gap=     0.351 Goal=   None    Shift=    0.000
 RMSDP=2.00D-03 MaxDP=8.29D-02 DE=-8.09D-02 OVMax= 7.58D-02

 Cycle   3  Pass 1  IDiag  1:
 RMSU=  1.92D-03    CP:  9.47D-01  8.82D-01
 E= -269.523208206950     Delta-E=       -0.084043847791 Rises=F Damp=F
 DIIS: error= 4.29D-03 at cycle   3 NSaved=   3.
 NSaved= 3 IEnMin= 3 EnMin= -269.523208206950     IErMin= 3 ErrMin= 4.29D-03
 ErrMax= 4.29D-03  0.00D+00 EMaxC= 1.00D-01 BMatC= 4.15D-03 BMatP= 1.52D-02
 IDIUse=3 WtCom= 9.57D-01 WtEn= 4.29D-02
 Coeff-Com: -0.769D-01 0.322D+00 0.755D+00
 Coeff-En:   0.000D+00 0.000D+00 0.100D+01
 Coeff:     -0.736D-01 0.308D+00 0.766D+00
 Gap=     0.344 Goal=   None    Shift=    0.000
 RMSDP=3.61D-04 MaxDP=8.41D-03 DE=-8.40D-02 OVMax= 1.08D-02

 Cycle   4  Pass 1  IDiag  1:
 RMSU=  3.21D-04    CP:  9.47D-01  9.33D-01  9.96D-01
 E= -269.525342713379     Delta-E=       -0.002134506430 Rises=F Damp=F
 DIIS: error= 1.70D-03 at cycle   4 NSaved=   4.
 NSaved= 4 IEnMin= 4 EnMin= -269.525342713379     IErMin= 4 ErrMin= 1.70D-03
 ErrMax= 1.70D-03  0.00D+00 EMaxC= 1.00D-01 BMatC= 8.34D-04 BMatP= 4.15D-03
 IDIUse=3 WtCom= 9.83D-01 WtEn= 1.70D-02
 Coeff-Com: -0.319D-01 0.834D-01 0.376D+00 0.572D+00
 Coeff-En:   0.000D+00 0.000D+00 0.139D+00 0.861D+00
 Coeff:     -0.314D-01 0.820D-01 0.372D+00 0.577D+00
 Gap=     0.342 Goal=   None    Shift=    0.000
 RMSDP=1.61D-04 MaxDP=3.64D-03 DE=-2.13D-03 OVMax= 4.80D-03

 Cycle   5  Pass 1  IDiag  1:
 RMSU=  9.88D-05    CP:  9.44D-01  9.21D-01  1.01D+00  6.48D-01
 E= -269.526029774073     Delta-E=       -0.000687060693 Rises=F Damp=F
 DIIS: error= 1.78D-04 at cycle   5 NSaved=   5.
 NSaved= 5 IEnMin= 5 EnMin= -269.526029774073     IErMin= 5 ErrMin= 1.78D-04
 ErrMax= 1.78D-04  0.00D+00 EMaxC= 1.00D-01 BMatC= 7.17D-06 BMatP= 8.34D-04
 IDIUse=3 WtCom= 9.98D-01 WtEn= 1.78D-03
 Coeff-Com: -0.337D-02 0.451D-02 0.465D-01 0.129D+00 0.823D+00
 Coeff-En:   0.000D+00 0.000D+00 0.000D+00 0.000D+00 0.100D+01
 Coeff:     -0.336D-02 0.450D-02 0.464D-01 0.129D+00 0.824D+00
 Gap=     0.342 Goal=   None    Shift=    0.000
 RMSDP=2.93D-05 MaxDP=1.16D-03 DE=-6.87D-04 OVMax= 5.45D-04

 Cycle   6  Pass 1  IDiag  1:
 RMSU=  2.08D-05    CP:  9.44D-01  9.17D-01  1.01D+00  6.79D-01  9.26D-01
 E= -269.526035864572     Delta-E=       -0.000006090499 Rises=F Damp=F
 DIIS: error= 2.35D-05 at cycle   6 NSaved=   6.
 NSaved= 6 IEnMin= 6 EnMin= -269.526035864572     IErMin= 6 ErrMin= 2.35D-05
 ErrMax= 2.35D-05  0.00D+00 EMaxC= 1.00D-01 BMatC= 1.67D-07 BMatP= 7.17D-06
 IDIUse=1 WtCom= 1.00D+00 WtEn= 0.00D+00
 Coeff-Com:  0.618D-03-0.185D-02-0.535D-02-0.131D-02 0.770D-01 0.931D+00
 Coeff:      0.618D-03-0.185D-02-0.535D-02-0.131D-02 0.770D-01 0.931D+00
 Gap=     0.342 Goal=   None    Shift=    0.000
 RMSDP=9.16D-06 MaxDP=2.88D-04 DE=-6.09D-06 OVMax= 1.62D-04

 Cycle   7  Pass 1  IDiag  1:
 RMSU=  5.05D-06    CP:  9.45D-01  9.15D-01  1.01D+00  6.82D-01  9.54D-01
                    CP:  1.11D+00
 E= -269.526036030508     Delta-E=       -0.000000165937 Rises=F Damp=F
 DIIS: error= 1.38D-05 at cycle   7 NSaved=   7.
 NSaved= 7 IEnMin= 7 EnMin= -269.526036030508     IErMin= 7 ErrMin= 1.38D-05
 ErrMax= 1.38D-05  0.00D+00 EMaxC= 1.00D-01 BMatC= 5.85D-08 BMatP= 1.67D-07
 IDIUse=1 WtCom= 1.00D+00 WtEn= 0.00D+00
 Coeff-Com:  0.580D-03-0.122D-02-0.647D-02-0.118D-01-0.399D-01 0.394D+00
 Coeff-Com:  0.665D+00
 Coeff:      0.580D-03-0.122D-02-0.647D-02-0.118D-01-0.399D-01 0.394D+00
 Coeff:      0.665D+00
 Gap=     0.342 Goal=   None    Shift=    0.000
 RMSDP=2.16D-06 MaxDP=5.61D-05 DE=-1.66D-07 OVMax= 4.99D-05

 Cycle   8  Pass 1  IDiag  1:
 RMSU=  9.62D-07    CP:  9.45D-01  9.14D-01  1.01D+00  6.83D-01  9.57D-01
                    CP:  1.17D+00  8.73D-01
 E= -269.526036082189     Delta-E=       -0.000000051680 Rises=F Damp=F
 DIIS: error= 2.62D-06 at cycle   8 NSaved=   8.
 NSaved= 8 IEnMin= 8 EnMin= -269.526036082189     IErMin= 8 ErrMin= 2.62D-06
 ErrMax= 2.62D-06  0.00D+00 EMaxC= 1.00D-01 BMatC= 2.64D-09 BMatP= 5.85D-08
 IDIUse=1 WtCom= 1.00D+00 WtEn= 0.00D+00
 Coeff-Com:  0.152D-03-0.299D-03-0.186D-02-0.382D-02-0.179D-01 0.818D-01
 Coeff-Com:  0.227D+00 0.715D+00
 Coeff:      0.152D-03-0.299D-03-0.186D-02-0.382D-02-0.179D-01 0.818D-01
 Coeff:      0.227D+00 0.715D+00
 Gap=     0.342 Goal=   None    Shift=    0.000
 RMSDP=6.44D-07 MaxDP=2.02D-05 DE=-5.17D-08 OVMax= 1.37D-05

 Cycle   9  Pass 1  IDiag  1:
 RMSU=  3.71D-07    CP:  9.45D-01  9.14D-01  1.01D+00  6.83D-01  9.57D-01
                    CP:  1.18D+00  9.22D-01  9.69D-01
 E= -269.526036084146     Delta-E=       -0.000000001957 Rises=F Damp=F
 DIIS: error= 1.10D-06 at cycle   9 NSaved=   9.
 NSaved= 9 IEnMin= 9 EnMin= -269.526036084146     IErMin= 9 ErrMin= 1.10D-06
 ErrMax= 1.10D-06  0.00D+00 EMaxC= 1.00D-01 BMatC= 3.66D-10 BMatP= 2.64D-09
 IDIUse=1 WtCom= 1.00D+00 WtEn= 0.00D+00
 Coeff-Com:  0.261D-05-0.490D-06-0.138D-03-0.409D-03-0.352D-02-0.461D-02
 Coeff-Com:  0.257D-01 0.288D+00 0.695D+00
 Coeff:      0.261D-05-0.490D-06-0.138D-03-0.409D-03-0.352D-02-0.461D-02
 Coeff:      0.257D-01 0.288D+00 0.695D+00
 Gap=     0.342 Goal=   None    Shift=    0.000
 RMSDP=1.46D-07 MaxDP=3.43D-06 DE=-1.96D-09 OVMax= 4.44D-06

 Cycle  10  Pass 1  IDiag  1:
 RMSU=  9.62D-08    CP:  9.45D-01  9.14D-01  1.01D+00  6.83D-01  9.57D-01
                    CP:  1.18D+00  9.32D-01  1.04D+00  9.70D-01
 E= -269.526036084437     Delta-E=       -0.000000000291 Rises=F Damp=F
 DIIS: error= 2.79D-07 at cycle  10 NSaved=  10.
 NSaved=10 IEnMin=10 EnMin= -269.526036084437     IErMin=10 ErrMin= 2.79D-07
 ErrMax= 2.79D-07  0.00D+00 EMaxC= 1.00D-01 BMatC= 2.86D-11 BMatP= 3.66D-10
 IDIUse=1 WtCom= 1.00D+00 WtEn= 0.00D+00
 Coeff-Com: -0.147D-04 0.305D-04 0.139D-03 0.248D-03 0.658D-03-0.980D-02
 Coeff-Com: -0.170D-01 0.128D-01 0.241D+00 0.772D+00
 Coeff:     -0.147D-04 0.305D-04 0.139D-03 0.248D-03 0.658D-03-0.980D-02
 Coeff:     -0.170D-01 0.128D-01 0.241D+00 0.772D+00
 Gap=     0.342 Goal=   None    Shift=    0.000
 RMSDP=5.61D-08 MaxDP=1.23D-06 DE=-2.91D-10 OVMax= 1.77D-06

 Cycle  11  Pass 1  IDiag  1:
 RMSU=  3.13D-08    CP:  9.45D-01  9.14D-01  1.01D+00  6.83D-01  9.57D-01
                    CP:  1.18D+00  9.39D-01  1.06D+00  1.02D+00  9.47D-01
 E= -269.526036084463     Delta-E=       -0.000000000025 Rises=F Damp=F
 DIIS: error= 5.18D-08 at cycle  11 NSaved=  11.
 NSaved=11 IEnMin=11 EnMin= -269.526036084463     IErMin=11 ErrMin= 5.18D-08
 ErrMax= 5.18D-08  0.00D+00 EMaxC= 1.00D-01 BMatC= 6.08D-13 BMatP= 2.86D-11
 IDIUse=1 WtCom= 1.00D+00 WtEn= 0.00D+00
 Coeff-Com: -0.932D-06 0.219D-05 0.189D-04 0.330D-04 0.191D-03-0.370D-03
 Coeff-Com: -0.275D-02-0.143D-01-0.114D-01 0.609D-01 0.968D+00
 Coeff:     -0.932D-06 0.219D-05 0.189D-04 0.330D-04 0.191D-03-0.370D-03
 Coeff:     -0.275D-02-0.143D-01-0.114D-01 0.609D-01 0.968D+00
 Gap=     0.342 Goal=   None    Shift=    0.000
 RMSDP=1.68D-08 MaxDP=5.70D-07 DE=-2.54D-11 OVMax= 5.98D-07

 Cycle  12  Pass 1  IDiag  1:
 RMSU=  1.01D-08    CP:  9.45D-01  9.14D-01  1.01D+00  6.83D-01  9.57D-01
                    CP:  1.18D+00  9.40D-01  1.06D+00  1.03D+00  9.97D-01
                    CP:  1.10D+00
 E= -269.526036084466     Delta-E=       -0.000000000004 Rises=F Damp=F
 DIIS: error= 1.55D-08 at cycle  12 NSaved=  12.
 NSaved=12 IEnMin=12 EnMin= -269.526036084466     IErMin=12 ErrMin= 1.55D-08
 ErrMax= 1.55D-08  0.00D+00 EMaxC= 1.00D-01 BMatC= 6.91D-14 BMatP= 6.08D-13
 IDIUse=1 WtCom= 1.00D+00 WtEn= 0.00D+00
 Coeff-Com:  0.838D-06-0.160D-05-0.495D-05-0.101D-04-0.108D-04 0.568D-03
 Coeff-Com:  0.495D-03-0.437D-02-0.183D-01-0.354D-01 0.239D+00 0.818D+00
 Coeff:      0.838D-06-0.160D-05-0.495D-05-0.101D-04-0.108D-04 0.568D-03
 Coeff:      0.495D-03-0.437D-02-0.183D-01-0.354D-01 0.239D+00 0.818D+00
 Gap=     0.342 Goal=   None    Shift=    0.000
 RMSDP=3.45D-09 MaxDP=6.52D-08 DE=-3.64D-12 OVMax= 1.63D-07

 SCF Done:  E(RM062X) =  -269.526036084     A.U. after   12 cycles
            NFock= 12  Conv=0.34D-08     -V/T= 2.0039
 KE= 2.684901727995D+02 PE=-1.000904116682D+03 EE= 2.782216325302D+02
 Leave Link  502 at Mon Nov 10 19:44:30 2025, MaxMem=    33554432 cpu:        24.5
 (Enter /opt/programs/gaussian/g09/d_pgi133/l601.exe)
 Copying SCF densities to generalized density rwf, IOpCl= 0 IROHF=0.

 **********************************************************************

            Population analysis using the SCF density.

 **********************************************************************

 Orbital symmetries:
       Occupied  (A) (A) (A) (A) (A) (A) (A) (A) (A) (A) (A) (A)
                 (A) (A) (A) (A) (A) (A) (A) (A) (A)
       Virtual   (A) (A) (A) (A) (A) (A) (A) (A) (A) (A) (A) (A)
                 (A) (A) (A) (A) (A) (A) (A) (A) (A) (A) (A) (A)
                 (A) (A) (A) (A) (A) (A) (A) (A) (A) (A) (A) (A)
                 (A) (A) (A) (A) (A) (A) (A) (A) (A) (A) (A) (A)
                 (A) (A) (A) (A) (A) (A) (A) (A) (A) (A) (A) (A)
                 (A) (A) (A) (A) (A) (A) (A) (A) (A) (A) (A) (A)
                 (A) (A) (A) (A) (A) (A) (A) (A) (A) (A) (A) (A)
                 (A) (A) (A) (A) (A) (A) (A) (A) (A) (A) (A) (A)
                 (A) (A) (A) (A) (A) (A) (A) (A) (A) (A) (A) (A)
                 (A) (A) (A) (A) (A) (A) (A) (A) (A) (A) (A) (A)
                 (A) (A) (A) (A) (A) (A) (A) (A) (A) (A) (A) (A)
                 (A) (A) (A) (A) (A) (A) (A) (A) (A) (A) (A) (A)
                 (A)
 The electronic state is 1-A.
 Alpha  occ. eigenvalues --  -19.62889 -19.62432 -10.59448 -10.58811 -10.53751
 Alpha  occ. eigenvalues --   -1.15027  -1.14597  -0.87759  -0.76284  -0.68901
 Alpha  occ. eigenvalues --   -0.60989  -0.57541  -0.55489  -0.51313  -0.48991
 Alpha  occ. eigenvalues --   -0.46297  -0.44054  -0.41254  -0.39286  -0.35711
 Alpha  occ. eigenvalues --   -0.34971
 Alpha virt. eigenvalues --   -0.00773   0.00103   0.01444   0.02009   0.03419
 Alpha virt. eigenvalues --    0.04798   0.05345   0.05612   0.08057   0.09348
 Alpha virt. eigenvalues --    0.09671   0.11231   0.11902   0.12590   0.13031
 Alpha virt. eigenvalues --    0.13374   0.14220   0.14847   0.15799   0.17177
 Alpha virt. eigenvalues --    0.19968   0.20149   0.21392   0.22250   0.22695
 Alpha virt. eigenvalues --    0.23787   0.25059   0.26351   0.27068   0.28972
 Alpha virt. eigenvalues --    0.29712   0.31384   0.32182   0.32542   0.33376
 Alpha virt. eigenvalues --    0.35274   0.36503   0.37472   0.39824   0.41000
 Alpha virt. eigenvalues --    0.47193   0.47886   0.49069   0.55071   0.57165
 Alpha virt. eigenvalues --    0.60026   0.60560   0.62072   0.64082   0.67826
 Alpha virt. eigenvalues --    0.69317   0.69784   0.71423   0.71982   0.73928
 Alpha virt. eigenvalues --    0.76522   0.79176   0.92220   0.95731   0.97081
 Alpha virt. eigenvalues --    1.02624   1.06531   1.12914   1.15228   1.19752
 Alpha virt. eigenvalues --    1.21242   1.24697   1.28467   1.31810   1.35038
 Alpha virt. eigenvalues --    1.36345   1.42727   1.45125   1.46023   1.53706
 Alpha virt. eigenvalues --    1.55841   1.57004   1.59770   1.60471   1.62089
 Alpha virt. eigenvalues --    1.64352   1.66266   1.68697   1.69975   1.73106
 Alpha virt. eigenvalues --    1.76524   1.79916   1.83907   1.88066   1.88985
 Alpha virt. eigenvalues --    1.95550   2.02963   2.04909   2.09742   2.10785
 Alpha virt. eigenvalues --    2.13258   2.14073   2.19701   2.26835   2.32237
 Alpha virt. eigenvalues --    2.36733   2.47101   2.49740   2.51888   2.54991
 Alpha virt. eigenvalues --    2.56458   2.59589   2.61395   2.63354   2.68221
 Alpha virt. eigenvalues --    2.73289   2.74586   2.80980   2.86420   2.95490
 Alpha virt. eigenvalues --    2.96823   3.01763   3.11675   3.16159   3.18497
 Alpha virt. eigenvalues --    3.22035   3.26719   3.31026   3.35068   3.46845
 Alpha virt. eigenvalues --    3.74860   3.80054   3.84768   3.91487   3.94051
 Alpha virt. eigenvalues --    4.05217   4.08368   4.19486   4.35314   5.16510
 Alpha virt. eigenvalues --    5.19767   5.48078   5.50462   5.73301   5.74517
 Alpha virt. eigenvalues --   23.89082  23.91749  23.97355  50.01569  50.02761
          Condensed to atoms (all electrons):
               1          2          3          4          5          6
     1  C    5.623723   0.433065   0.343165  -0.134181  -0.032183  -0.071758
     2  H    0.433065   0.668519  -0.097407  -0.086545   0.031932  -0.008730
     3  H    0.343165  -0.097407   0.653411   0.012251  -0.035060   0.009720
     4  C   -0.134181  -0.086545   0.012251   5.711398   0.356949   0.515311
     5  H   -0.032183   0.031932  -0.035060   0.356949   0.645101  -0.071175
     6  H   -0.071758  -0.008730   0.009720   0.515311  -0.071175   0.498575
     7  C   -0.009783  -0.026982   0.020637   0.050427  -0.009325  -0.074771
     8  H    0.017407  -0.017502  -0.003702   0.050736  -0.047089   0.023442
     9  H   -0.022303   0.015656  -0.002413  -0.062960   0.023570  -0.027028
    10  O    0.202957  -0.065887  -0.052419  -0.107556   0.022145  -0.015248
    11  H    0.022199  -0.004455  -0.006665  -0.019285  -0.003437   0.003390
    12  O    0.035429   0.002800  -0.002283  -0.098876  -0.025278   0.017890
    13  H    0.002138   0.000645   0.000270  -0.004910   0.011468  -0.004666
               7          8          9         10         11         12
     1  C   -0.009783   0.017407  -0.022303   0.202957   0.022199   0.035429
     2  H   -0.026982  -0.017502   0.015656  -0.065887  -0.004455   0.002800
     3  H    0.020637  -0.003702  -0.002413  -0.052419  -0.006665  -0.002283
     4  C    0.050427   0.050736  -0.062960  -0.107556  -0.019285  -0.098876
     5  H   -0.009325  -0.047089   0.023570   0.022145  -0.003437  -0.025278
     6  H   -0.074771   0.023442  -0.027028  -0.015248   0.003390   0.017890
     7  C    5.504003   0.261684   0.465847  -0.002193   0.004434   0.222839
     8  H    0.261684   0.695791  -0.094875  -0.001579   0.001793  -0.024740
     9  H    0.465847  -0.094875   0.582118  -0.002610  -0.001773  -0.086770
    10  O   -0.002193  -0.001579  -0.002610   8.061640   0.243469  -0.001497
    11  H    0.004434   0.001793  -0.001773   0.243469   0.503139  -0.000043
    12  O    0.222839  -0.024740  -0.086770  -0.001497  -0.000043   7.964681
    13  H   -0.028546  -0.019243   0.018226  -0.000239  -0.000014   0.257408
              13
     1  C    0.002138
     2  H    0.000645
     3  H    0.000270
     4  C   -0.004910
     5  H    0.011468
     6  H   -0.004666
     7  C   -0.028546
     8  H   -0.019243
     9  H    0.018226
    10  O   -0.000239
    11  H   -0.000014
    12  O    0.257408
    13  H    0.517276
 Mulliken charges:
               1
     1  C   -0.409873
     2  H    0.154892
     3  H    0.160498
     4  C   -0.182759
     5  H    0.132381
     6  H    0.205050
     7  C   -0.378271
     8  H    0.157878
     9  H    0.195315
    10  O   -0.280984
    11  H    0.257247
    12  O   -0.261561
    13  H    0.250186
 Sum of Mulliken charges =   0.00000
 Mulliken charges with hydrogens summed into heavy atoms:
               1
     1  C   -0.094483
     4  C    0.154672
     7  C   -0.025077
    10  O   -0.023737
    12  O   -0.011375
 Electronic spatial extent (au):  <R**2>=            615.6898
 Charge=              0.0000 electrons
 Dipole moment (field-independent basis, Debye):
    X=              1.4003    Y=              1.9725    Z=              1.9446  Tot=              3.1037
 Quadrupole moment (field-independent basis, Debye-Ang):
   XX=            -32.4965   YY=            -32.8634   ZZ=            -30.9182
   XY=              3.7730   XZ=             -3.8182   YZ=             -1.4798
 Traceless Quadrupole moment (field-independent basis, Debye-Ang):
   XX=             -0.4038   YY=             -0.7707   ZZ=              1.1745
   XY=              3.7730   XZ=             -3.8182   YZ=             -1.4798
 Octapole moment (field-independent basis, Debye-Ang**2):
  XXX=             34.8799  YYY=             -1.2556  ZZZ=              0.5616  XYY=             -1.8796
  XXY=              8.9598  XXZ=             12.0873  XZZ=             -3.7233  YZZ=             -0.3522
  YYZ=             -0.0296  XYZ=              1.8944
 Hexadecapole moment (field-independent basis, Debye-Ang**3):
 XXXX=           -530.3362 YYYY=            -92.9150 ZZZZ=            -65.6473 XXXY=             30.6767
 XXXZ=            -46.5649 YYYX=              1.5199 YYYZ=              0.2763 ZZZX=             -2.9369
 ZZZY=             -1.7819 XXYY=           -119.1609 XXZZ=           -104.6110 YYZZ=            -26.0468
 XXYZ=             -8.9510 YYXZ=             -3.2367 ZZXY=              2.6051
 N-N= 1.846662752677D+02 E-N=-1.000904117421D+03  KE= 2.684901727995D+02
 No NMR shielding tensors so no spin-rotation constants.
 Leave Link  601 at Mon Nov 10 19:44:30 2025, MaxMem=    33554432 cpu:         0.0
 (Enter /opt/programs/gaussian/g09/d_pgi133/l9999.exe)
 1\1\GINC-EXADE5\SP\RM062X\6-311++G(d,p)\C3H8O2\APINTO\10-Nov-2025\0\\#
 p M062X/6-311++G(d,p)\\SP\\0,1\C,0,1.389553,-0.065517,0.189324\H,0,1.3
 01691,0.130644,1.271908\H,0,1.73613,-1.104902,0.082865\C,0,0.020903,0.
 120764,-0.482065\H,0,-0.162296,-0.674069,-1.216467\H,0,0.047196,1.0654
 66,-1.034488\C,0,-1.131844,0.178354,0.52252\H,0,-1.144446,-0.733872,1.
 143534\H,0,-0.983242,1.023774,1.202749\O,0,2.305275,0.848881,-0.406604
 \H,0,3.171104,0.709107,-0.001774\O,0,-2.393694,0.396799,-0.093213\H,0,
 -2.568704,-0.354136,-0.675556\\Version=ES64L-G09RevD.01\State=1-A\HF=-
 269.5260361\RMSD=3.448e-09\Dipole=0.6296452,-0.9856041,0.3509843\Quadr
 upole=-0.0616535,-0.0523114,0.1139648,1.4695397,3.6867483,1.4023415\PG
 =C01 [X(C3H8O2)]\\@


 What some people mistake for the high cost
 of living is really the cost of living high.
                              -- Doug Larson
 Job cpu time:       0 days  0 hours  0 minutes 26.2 seconds.
 File lengths (MBytes):  RWF=     16 Int=      0 D2E=      0 Chk=      2 Scr=      1
 Normal termination of Gaussian 09 at Mon Nov 10 19:44:30 2025.
