 Entering Gaussian System, Link 0=g09
 Input=xbd.com
 Output=xbd.log
 Initial command:
 /opt/programs/gaussian/g09/d_pgi133/l1.exe "/scratch/users/apinto/lixo/Gau-1268055.inp" -scrdir="/scratch/users/apinto/lixo/"
 Entering Link 1 = /opt/programs/gaussian/g09/d_pgi133/l1.exe PID=   1268057.
  
 Copyright (c) 1988,1990,1992,1993,1995,1998,2003,2009,2013,
            Gaussian, Inc.  All Rights Reserved.
  
 This is part of the Gaussian(R) 09 program.  It is based on
 the Gaussian(R) 03 system (copyright 2003, Gaussian, Inc.),
 the Gaussian(R) 98 system (copyright 1998, Gaussian, Inc.),
 the Gaussian(R) 94 system (copyright 1995, Gaussian, Inc.),
 the Gaussian 92(TM) system (copyright 1992, Gaussian, Inc.),
 the Gaussian 90(TM) system (copyright 1990, Gaussian, Inc.),
 the Gaussian 88(TM) system (copyright 1988, Gaussian, Inc.),
 the Gaussian 86(TM) system (copyright 1986, Carnegie Mellon
 University), and the Gaussian 82(TM) system (copyright 1983,
 Carnegie Mellon University). Gaussian is a federally registered
 trademark of Gaussian, Inc.
  
 This software contains proprietary and confidential information,
 including trade secrets, belonging to Gaussian, Inc.
  
 This software is provided under written license and may be
 used, copied, transmitted, or stored only in accord with that
 written license.
  
 The following legend is applicable only to US Government
 contracts under FAR:
  
                    RESTRICTED RIGHTS LEGEND
  
 Use, reproduction and disclosure by the US Government is
 subject to restrictions as set forth in subparagraphs (a)
 and (c) of the Commercial Computer Software - Restricted
 Rights clause in FAR 52.227-19.
  
 Gaussian, Inc.
 340 Quinnipiac St., Bldg. 40, Wallingford CT 06492
  
  
 ---------------------------------------------------------------
 Warning -- This program may not be used in any manner that
 competes with the business of Gaussian, Inc. or will provide
 assistance to any competitor of Gaussian, Inc.  The licensee
 of this program is prohibited from giving any competitor of
 Gaussian, Inc. access to this program.  By using this program,
 the user acknowledges that Gaussian, Inc. is engaged in the
 business of creating and licensing software in the field of
 computational chemistry and represents and warrants to the
 licensee that it is not a competitor of Gaussian, Inc. and that
 it will not use this program in any manner prohibited above.
 ---------------------------------------------------------------
  

 Cite this work as:
 Gaussian 09, Revision D.01,
 M. J. Frisch, G. W. Trucks, H. B. Schlegel, G. E. Scuseria, 
 M. A. Robb, J. R. Cheeseman, G. Scalmani, V. Barone, B. Mennucci, 
 G. A. Petersson, H. Nakatsuji, M. Caricato, X. Li, H. P. Hratchian, 
 A. F. Izmaylov, J. Bloino, G. Zheng, J. L. Sonnenberg, M. Hada, 
 M. Ehara, K. Toyota, R. Fukuda, J. Hasegawa, M. Ishida, T. Nakajima, 
 Y. Honda, O. Kitao, H. Nakai, T. Vreven, J. A. Montgomery, Jr., 
 J. E. Peralta, F. Ogliaro, M. Bearpark, J. J. Heyd, E. Brothers, 
 K. N. Kudin, V. N. Staroverov, T. Keith, R. Kobayashi, J. Normand, 
 K. Raghavachari, A. Rendell, J. C. Burant, S. S. Iyengar, J. Tomasi, 
 M. Cossi, N. Rega, J. M. Millam, M. Klene, J. E. Knox, J. B. Cross, 
 V. Bakken, C. Adamo, J. Jaramillo, R. Gomperts, R. E. Stratmann, 
 O. Yazyev, A. J. Austin, R. Cammi, C. Pomelli, J. W. Ochterski, 
 R. L. Martin, K. Morokuma, V. G. Zakrzewski, G. A. Voth, 
 P. Salvador, J. J. Dannenberg, S. Dapprich, A. D. Daniels, 
 O. Farkas, J. B. Foresman, J. V. Ortiz, J. Cioslowski, 
 and D. J. Fox, Gaussian, Inc., Wallingford CT, 2013.
 
 ******************************************
 Gaussian 09:  ES64L-G09RevD.01 24-Apr-2013
                10-Nov-2025 
 ******************************************
 ----------------------
 #p M062X/6-311++G(d,p)
 ----------------------
 1/38=1/1;
 2/12=2,17=6,18=5,40=1/2;
 3/5=4,6=6,7=1111,11=2,16=1,25=1,30=1,74=-55/1,2,3;
 4//1;
 5/5=2,38=5/2;
 6/7=2,8=2,9=2,10=2,28=1/1;
 99/5=1,9=1/99;
 Leave Link    1 at Mon Nov 10 19:44:56 2025, MaxMem=           0 cpu:         0.0
 (Enter /opt/programs/gaussian/g09/d_pgi133/l101.exe)
 --
 SP
 --
 Symbolic Z-matrix:
 Charge =  0 Multiplicity = 1
 C                     1.39572  -0.10674   0.15954 
 H                     1.29531  -0.06564   1.25765 
 H                     1.81157  -1.09674  -0.08258 
 C                     0.01792   0.07545  -0.49969 
 H                    -0.20242  -0.76628  -1.16928 
 H                     0.05785   0.97524  -1.12109 
 C                    -1.11557   0.22268   0.51798 
 H                    -1.13798  -0.65346   1.18842 
 H                    -0.93298   1.10055   1.14728 
 O                     2.25242   0.9332   -0.30458 
 H                     3.11116   0.8251    0.12438 
 O                    -2.3823    0.4371   -0.088 
 H                    -2.58307  -0.33917  -0.62731 
 
 NAtoms=     13 NQM=       13 NQMF=       0 NMMI=      0 NMMIF=      0
                NMic=       0 NMicF=      0.
                    Isotopes and Nuclear Properties:
 (Nuclear quadrupole moments (NQMom) in fm**2, nuclear magnetic moments (NMagM)
  in nuclear magnetons)

  Atom         1           2           3           4           5           6           7           8           9          10
 IAtWgt=          12           1           1          12           1           1          12           1           1          16
 AtmWgt=  12.0000000   1.0078250   1.0078250  12.0000000   1.0078250   1.0078250  12.0000000   1.0078250   1.0078250  15.9949146
 NucSpn=           0           1           1           0           1           1           0           1           1           0
 AtZEff=   0.0000000   0.0000000   0.0000000   0.0000000   0.0000000   0.0000000   0.0000000   0.0000000   0.0000000   0.0000000
 NQMom=    0.0000000   0.0000000   0.0000000   0.0000000   0.0000000   0.0000000   0.0000000   0.0000000   0.0000000   0.0000000
 NMagM=    0.0000000   2.7928460   2.7928460   0.0000000   2.7928460   2.7928460   0.0000000   2.7928460   2.7928460   0.0000000
 AtZNuc=   6.0000000   1.0000000   1.0000000   6.0000000   1.0000000   1.0000000   6.0000000   1.0000000   1.0000000   8.0000000

  Atom        11          12          13
 IAtWgt=           1          16           1
 AtmWgt=   1.0078250  15.9949146   1.0078250
 NucSpn=           1           0           1
 AtZEff=   0.0000000   0.0000000   0.0000000
 NQMom=    0.0000000   0.0000000   0.0000000
 NMagM=    2.7928460   0.0000000   2.7928460
 AtZNuc=   1.0000000   8.0000000   1.0000000
 Leave Link  101 at Mon Nov 10 19:44:56 2025, MaxMem=    33554432 cpu:         0.0
 (Enter /opt/programs/gaussian/g09/d_pgi133/l202.exe)
                          Input orientation:                          
 ---------------------------------------------------------------------
 Center     Atomic      Atomic             Coordinates (Angstroms)
 Number     Number       Type             X           Y           Z
 ---------------------------------------------------------------------
      1          6           0        1.395723   -0.106737    0.159540
      2          1           0        1.295313   -0.065642    1.257647
      3          1           0        1.811568   -1.096736   -0.082579
      4          6           0        0.017915    0.075448   -0.499690
      5          1           0       -0.202420   -0.766282   -1.169276
      6          1           0        0.057850    0.975239   -1.121086
      7          6           0       -1.115565    0.222677    0.517979
      8          1           0       -1.137978   -0.653457    1.188419
      9          1           0       -0.932983    1.100545    1.147280
     10          8           0        2.252417    0.933204   -0.304577
     11          1           0        3.111159    0.825104    0.124384
     12          8           0       -2.382301    0.437102   -0.087997
     13          1           0       -2.583073   -0.339174   -0.627309
 ---------------------------------------------------------------------
                    Distance matrix (angstroms):
                    1          2          3          4          5
     1  C    0.000000
     2  H    1.103454   0.000000
     3  H    1.100748   1.768016   0.000000
     4  C    1.538223   2.177128   2.182931   0.000000
     5  H    2.180553   2.936674   2.312198   1.097908   0.000000
     6  H    2.144896   2.876303   2.906390   1.094236   1.761522
     7  C    2.558038   2.538222   3.266440   1.530393   2.158403
     8  H    2.788752   2.504241   3.242183   2.171889   2.539040
     9  H    2.802861   2.517434   3.724669   2.160449   3.063527
    10  O    1.425064   2.086692   2.089088   2.401419   3.108405
    11  H    1.952507   2.318407   2.329214   3.243395   3.896905
    12  O    3.824984   3.948209   4.465560   2.461975   2.714623
    13  H    4.062509   4.320851   4.492605   2.636918   2.478640
                    6          7          8          9         10
     6  H    0.000000
     7  C    2.151694   0.000000
     8  H    3.068627   1.103450   0.000000
     9  H    2.478495   1.095449   1.766420   0.000000
    10  O    2.341918   3.539032   4.030051   3.504663   0.000000
    11  H    3.300974   4.287544   4.623146   4.180582   0.965987
    12  O    2.703923   1.420495   2.089712   2.016578   4.666223
    13  H    2.990982   1.944464   2.341782   2.818644   5.010496
                   11         12         13
    11  H    0.000000
    12  O    5.511239   0.000000
    13  H    5.860449   0.966318   0.000000
 Stoichiometry    C3H8O2
 Framework group  C1[X(C3H8O2)]
 Deg. of freedom    33
 Full point group                 C1      NOp   1
 Largest Abelian subgroup         C1      NOp   1
 Largest concise Abelian subgroup C1      NOp   1
                         Standard orientation:                         
 ---------------------------------------------------------------------
 Center     Atomic      Atomic             Coordinates (Angstroms)
 Number     Number       Type             X           Y           Z
 ---------------------------------------------------------------------
      1          6           0        1.310340    0.454370    0.275009
      2          1           0        1.168265    1.363551   -0.333936
      3          1           0        1.677992    0.786960    1.257793
      4          6           0       -0.027009   -0.291012    0.423444
      5          1           0       -0.268205   -0.440804    1.484005
      6          1           0        0.089624   -1.284348   -0.020439
      7          6           0       -1.190257    0.428154   -0.263403
      8          1           0       -1.290027    1.452217    0.135274
      9          1           0       -0.983018    0.522442   -1.334930
     10          8           0        2.243433   -0.424778   -0.347279
     11          1           0        3.076542    0.052403   -0.453851
     12          8           0       -2.417101   -0.281334   -0.167053
     13          1           0       -2.640271   -0.352597    0.770437
 ---------------------------------------------------------------------
 Rotational constants (GHZ):     17.1650784      2.0404156      2.0061147
 Leave Link  202 at Mon Nov 10 19:44:56 2025, MaxMem=    33554432 cpu:         0.0
 (Enter /opt/programs/gaussian/g09/d_pgi133/l301.exe)
 Standard basis: 6-311++G(d,p) (5D, 7F)
 Ernie: Thresh=  0.10000D-02 Tol=  0.10000D-05 Strict=F.
 There are   171 symmetry adapted cartesian basis functions of A   symmetry.
 There are   166 symmetry adapted basis functions of A   symmetry.
   166 basis functions,   252 primitive gaussians,   171 cartesian basis functions
    21 alpha electrons       21 beta electrons
       nuclear repulsion energy       184.8986592734 Hartrees.
 IExCor= 4336 DFT=T Ex+Corr=M062X ExCW=0 ScaHFX=  0.540000
 ScaDFX=  1.000000  1.000000  1.000000  1.000000 ScalE2=  1.000000  1.000000
 IRadAn=      0 IRanWt=     -1 IRanGd=            0 ICorTp=0 IEmpDi=  4
 NAtoms=   13 NActive=   13 NUniq=   13 SFac= 1.00D+00 NAtFMM=   60 NAOKFM=F Big=F
 Integral buffers will be    131072 words long.
 Raffenetti 2 integral format.
 Two-electron integral symmetry is turned on.
 Leave Link  301 at Mon Nov 10 19:44:56 2025, MaxMem=    33554432 cpu:         0.0
 (Enter /opt/programs/gaussian/g09/d_pgi133/l302.exe)
 NPDir=0 NMtPBC=     1 NCelOv=     1 NCel=       1 NClECP=     1 NCelD=      1
         NCelK=      1 NCelE2=     1 NClLst=     1 CellRange=     0.0.
 One-electron integrals computed using PRISM.
 NBasis=   166 RedAO= T EigKep=  4.15D-05  NBF=   166
 NBsUse=   166 1.00D-06 EigRej= -1.00D+00 NBFU=   166
 Precomputing XC quadrature grid using
 IXCGrd= 4 IRadAn=           0 IRanWt=          -1 IRanGd=           0 AccXCQ= 0.00D+00.
 Generated NRdTot=       0 NPtTot=           0 NUsed=           0 NTot=          32
 NSgBfM=   171   171   171   171   171 MxSgAt=    13 MxSgA2=    13.
 Leave Link  302 at Mon Nov 10 19:44:56 2025, MaxMem=    33554432 cpu:         0.1
 (Enter /opt/programs/gaussian/g09/d_pgi133/l303.exe)
 DipDrv:  MaxL=1.
 Leave Link  303 at Mon Nov 10 19:44:56 2025, MaxMem=    33554432 cpu:         0.0
 (Enter /opt/programs/gaussian/g09/d_pgi133/l401.exe)
 ExpMin= 3.60D-02 ExpMax= 8.59D+03 ExpMxC= 1.30D+03 IAcc=3 IRadAn=         5 AccDes= 0.00D+00
 Harris functional with IExCor= 1009 and IRadAn=       5 diagonalized for initial guess.
 HarFok:  IExCor= 1009 AccDes= 0.00D+00 IRadAn=         5 IDoV= 1 UseB2=F ITyADJ=14
 ICtDFT=  3500011 ScaDFX=  1.000000  1.000000  1.000000  1.000000
 FoFCou: FMM=F IPFlag=           0 FMFlag=      100000 FMFlg1=           0
         NFxFlg=           0 DoJE=T BraDBF=F KetDBF=T FulRan=T
         wScrn=  0.000000 ICntrl=     500 IOpCl=  0 I1Cent=   200000004 NGrid=           0
         NMat0=    1 NMatS0=      1 NMatT0=    0 NMatD0=    1 NMtDS0=    0 NMtDT0=    0
 Petite list used in FoFCou.
 Harris En= -269.439039868732    
 JPrj=0 DoOrth=F DoCkMO=F.
 Leave Link  401 at Mon Nov 10 19:44:58 2025, MaxMem=    33554432 cpu:         1.5
 (Enter /opt/programs/gaussian/g09/d_pgi133/l502.exe)
 Closed shell SCF:
 Using DIIS extrapolation, IDIIS=  1040.
 Integral symmetry usage will be decided dynamically.
 IVT=      108587 IEndB=      108587 NGot=    33554432 MDV=    33491898
 LenX=    33491898 LenY=    33462216
 Requested convergence on RMS density matrix=1.00D-08 within 128 cycles.
 Requested convergence on MAX density matrix=1.00D-06.
 Requested convergence on             energy=1.00D-06.
 No special actions if energy rises.
 Fock matrices will be formed incrementally for  20 cycles.

 Cycle   1  Pass 1  IDiag  1:
 FoFJK:  IHMeth= 1 ICntrl=       0 DoSepK=F KAlg= 0 I1Cent=   0 FoldK=F
 IRaf= 970000000 NMat=   1 IRICut=       1 DoRegI=T DoRafI=F ISym2E= 0.
 FoFCou: FMM=F IPFlag=           0 FMFlag=      100000 FMFlg1=           0
         NFxFlg=           0 DoJE=F BraDBF=F KetDBF=F FulRan=T
         wScrn=  0.000000 ICntrl=       0 IOpCl=  0 I1Cent=           0 NGrid=           0
         NMat0=    1 NMatS0=      1 NMatT0=    0 NMatD0=    1 NMtDS0=    0 NMtDT0=    0
 Symmetry not used in FoFCou.
 E= -269.357486167673    
 DIIS: error= 2.79D-02 at cycle   1 NSaved=   1.
 NSaved= 1 IEnMin= 1 EnMin= -269.357486167673     IErMin= 1 ErrMin= 2.79D-02
 ErrMax= 2.79D-02  0.00D+00 EMaxC= 1.00D-01 BMatC= 2.34D-01 BMatP= 2.34D-01
 IDIUse=3 WtCom= 7.21D-01 WtEn= 2.79D-01
 Coeff-Com:  0.100D+01
 Coeff-En:   0.100D+01
 Coeff:      0.100D+01
 Gap=     0.296 Goal=   None    Shift=    0.000
 GapD=    0.296 DampG=1.000 DampE=0.500 DampFc=0.5000 IDamp=-1.
 Damping current iteration by 5.00D-01
 RMSDP=6.53D-03 MaxDP=1.60D-01              OVMax= 1.33D-01

 Cycle   2  Pass 1  IDiag  1:
 RMSU=  3.24D-03    CP:  9.75D-01
 E= -269.438323951226     Delta-E=       -0.080837783553 Rises=F Damp=T
 DIIS: error= 7.53D-03 at cycle   2 NSaved=   2.
 NSaved= 2 IEnMin= 2 EnMin= -269.438323951226     IErMin= 2 ErrMin= 7.53D-03
 ErrMax= 7.53D-03  0.00D+00 EMaxC= 1.00D-01 BMatC= 1.52D-02 BMatP= 2.34D-01
 IDIUse=3 WtCom= 9.25D-01 WtEn= 7.53D-02
 Coeff-Com: -0.358D-01 0.104D+01
 Coeff-En:   0.000D+00 0.100D+01
 Coeff:     -0.331D-01 0.103D+01
 Gap=     0.350 Goal=   None    Shift=    0.000
 RMSDP=1.97D-03 MaxDP=6.90D-02 DE=-8.08D-02 OVMax= 7.64D-02

 Cycle   3  Pass 1  IDiag  1:
 RMSU=  1.90D-03    CP:  9.52D-01  8.91D-01
 E= -269.522651769446     Delta-E=       -0.084327818221 Rises=F Damp=F
 DIIS: error= 4.88D-03 at cycle   3 NSaved=   3.
 NSaved= 3 IEnMin= 3 EnMin= -269.522651769446     IErMin= 3 ErrMin= 4.88D-03
 ErrMax= 4.88D-03  0.00D+00 EMaxC= 1.00D-01 BMatC= 4.17D-03 BMatP= 1.52D-02
 IDIUse=3 WtCom= 9.51D-01 WtEn= 4.88D-02
 Coeff-Com: -0.768D-01 0.321D+00 0.756D+00
 Coeff-En:   0.000D+00 0.000D+00 0.100D+01
 Coeff:     -0.730D-01 0.306D+00 0.768D+00
 Gap=     0.343 Goal=   None    Shift=    0.000
 RMSDP=3.74D-04 MaxDP=8.50D-03 DE=-8.43D-02 OVMax= 1.09D-02

 Cycle   4  Pass 1  IDiag  1:
 RMSU=  3.31D-04    CP:  9.52D-01  9.45D-01  9.98D-01
 E= -269.524806835849     Delta-E=       -0.002155066402 Rises=F Damp=F
 DIIS: error= 1.87D-03 at cycle   4 NSaved=   4.
 NSaved= 4 IEnMin= 4 EnMin= -269.524806835849     IErMin= 4 ErrMin= 1.87D-03
 ErrMax= 1.87D-03  0.00D+00 EMaxC= 1.00D-01 BMatC= 8.38D-04 BMatP= 4.17D-03
 IDIUse=3 WtCom= 9.81D-01 WtEn= 1.87D-02
 Coeff-Com: -0.317D-01 0.833D-01 0.377D+00 0.572D+00
 Coeff-En:   0.000D+00 0.000D+00 0.138D+00 0.862D+00
 Coeff:     -0.311D-01 0.817D-01 0.372D+00 0.577D+00
 Gap=     0.340 Goal=   None    Shift=    0.000
 RMSDP=1.60D-04 MaxDP=3.67D-03 DE=-2.16D-03 OVMax= 4.82D-03

 Cycle   5  Pass 1  IDiag  1:
 RMSU=  1.02D-04    CP:  9.50D-01  9.34D-01  1.01D+00  6.61D-01
 E= -269.525493504657     Delta-E=       -0.000686668809 Rises=F Damp=F
 DIIS: error= 1.76D-04 at cycle   5 NSaved=   5.
 NSaved= 5 IEnMin= 5 EnMin= -269.525493504657     IErMin= 5 ErrMin= 1.76D-04
 ErrMax= 1.76D-04  0.00D+00 EMaxC= 1.00D-01 BMatC= 7.65D-06 BMatP= 8.38D-04
 IDIUse=3 WtCom= 9.98D-01 WtEn= 1.76D-03
 Coeff-Com: -0.338D-02 0.453D-02 0.476D-01 0.132D+00 0.819D+00
 Coeff-En:   0.000D+00 0.000D+00 0.000D+00 0.000D+00 0.100D+01
 Coeff:     -0.337D-02 0.453D-02 0.475D-01 0.132D+00 0.819D+00
 Gap=     0.340 Goal=   None    Shift=    0.000
 RMSDP=3.19D-05 MaxDP=1.09D-03 DE=-6.87D-04 OVMax= 5.62D-04

 Cycle   6  Pass 1  IDiag  1:
 RMSU=  2.24D-05    CP:  9.50D-01  9.29D-01  1.01D+00  6.90D-01  9.09D-01
 E= -269.525499993345     Delta-E=       -0.000006488688 Rises=F Damp=F
 DIIS: error= 2.21D-05 at cycle   6 NSaved=   6.
 NSaved= 6 IEnMin= 6 EnMin= -269.525499993345     IErMin= 6 ErrMin= 2.21D-05
 ErrMax= 2.21D-05  0.00D+00 EMaxC= 1.00D-01 BMatC= 1.65D-07 BMatP= 7.65D-06
 IDIUse=1 WtCom= 1.00D+00 WtEn= 0.00D+00
 Coeff-Com:  0.637D-03-0.189D-02-0.560D-02-0.169D-02 0.731D-01 0.935D+00
 Coeff:      0.637D-03-0.189D-02-0.560D-02-0.169D-02 0.731D-01 0.935D+00
 Gap=     0.341 Goal=   None    Shift=    0.000
 RMSDP=9.03D-06 MaxDP=3.08D-04 DE=-6.49D-06 OVMax= 1.58D-04

 Cycle   7  Pass 1  IDiag  1:
 RMSU=  5.01D-06    CP:  9.50D-01  9.27D-01  1.01D+00  6.94D-01  9.38D-01
                    CP:  1.11D+00
 E= -269.525500159718     Delta-E=       -0.000000166373 Rises=F Damp=F
 DIIS: error= 1.35D-05 at cycle   7 NSaved=   7.
 NSaved= 7 IEnMin= 7 EnMin= -269.525500159718     IErMin= 7 ErrMin= 1.35D-05
 ErrMax= 1.35D-05  0.00D+00 EMaxC= 1.00D-01 BMatC= 5.68D-08 BMatP= 1.65D-07
 IDIUse=1 WtCom= 1.00D+00 WtEn= 0.00D+00
 Coeff-Com:  0.569D-03-0.121D-02-0.643D-02-0.117D-01-0.376D-01 0.392D+00
 Coeff-Com:  0.664D+00
 Coeff:      0.569D-03-0.121D-02-0.643D-02-0.117D-01-0.376D-01 0.392D+00
 Coeff:      0.664D+00
 Gap=     0.341 Goal=   None    Shift=    0.000
 RMSDP=2.14D-06 MaxDP=4.42D-05 DE=-1.66D-07 OVMax= 4.89D-05

 Cycle   8  Pass 1  IDiag  1:
 RMSU=  9.81D-07    CP:  9.50D-01  9.27D-01  1.01D+00  6.95D-01  9.40D-01
                    CP:  1.16D+00  8.74D-01
 E= -269.525500208582     Delta-E=       -0.000000048864 Rises=F Damp=F
 DIIS: error= 2.78D-06 at cycle   8 NSaved=   8.
 NSaved= 8 IEnMin= 8 EnMin= -269.525500208582     IErMin= 8 ErrMin= 2.78D-06
 ErrMax= 2.78D-06  0.00D+00 EMaxC= 1.00D-01 BMatC= 3.19D-09 BMatP= 5.68D-08
 IDIUse=1 WtCom= 1.00D+00 WtEn= 0.00D+00
 Coeff-Com:  0.156D-03-0.307D-03-0.194D-02-0.399D-02-0.182D-01 0.837D-01
 Coeff-Com:  0.243D+00 0.698D+00
 Coeff:      0.156D-03-0.307D-03-0.194D-02-0.399D-02-0.182D-01 0.837D-01
 Coeff:      0.243D+00 0.698D+00
 Gap=     0.341 Goal=   None    Shift=    0.000
 RMSDP=6.82D-07 MaxDP=2.00D-05 DE=-4.89D-08 OVMax= 1.37D-05

 Cycle   9  Pass 1  IDiag  1:
 RMSU=  3.75D-07    CP:  9.50D-01  9.26D-01  1.01D+00  6.95D-01  9.41D-01
                    CP:  1.17D+00  9.27D-01  9.32D-01
 E= -269.525500210939     Delta-E=       -0.000000002357 Rises=F Damp=F
 DIIS: error= 1.18D-06 at cycle   9 NSaved=   9.
 NSaved= 9 IEnMin= 9 EnMin= -269.525500210939     IErMin= 9 ErrMin= 1.18D-06
 ErrMax= 1.18D-06  0.00D+00 EMaxC= 1.00D-01 BMatC= 3.45D-10 BMatP= 3.19D-09
 IDIUse=1 WtCom= 1.00D+00 WtEn= 0.00D+00
 Coeff-Com:  0.419D-05-0.324D-05-0.160D-03-0.457D-03-0.363D-02-0.390D-02
 Coeff-Com:  0.294D-01 0.266D+00 0.713D+00
 Coeff:      0.419D-05-0.324D-05-0.160D-03-0.457D-03-0.363D-02-0.390D-02
 Coeff:      0.294D-01 0.266D+00 0.713D+00
 Gap=     0.341 Goal=   None    Shift=    0.000
 RMSDP=1.49D-07 MaxDP=3.39D-06 DE=-2.36D-09 OVMax= 4.76D-06

 Cycle  10  Pass 1  IDiag  1:
 RMSU=  9.86D-08    CP:  9.50D-01  9.26D-01  1.01D+00  6.95D-01  9.40D-01
                    CP:  1.17D+00  9.37D-01  9.96D-01  9.88D-01
 E= -269.525500211214     Delta-E=       -0.000000000275 Rises=F Damp=F
 DIIS: error= 3.01D-07 at cycle  10 NSaved=  10.
 NSaved=10 IEnMin=10 EnMin= -269.525500211214     IErMin=10 ErrMin= 3.01D-07
 ErrMax= 3.01D-07  0.00D+00 EMaxC= 1.00D-01 BMatC= 3.08D-11 BMatP= 3.45D-10
 IDIUse=1 WtCom= 1.00D+00 WtEn= 0.00D+00
 Coeff-Com: -0.145D-04 0.301D-04 0.138D-03 0.243D-03 0.608D-03-0.969D-02
 Coeff-Com: -0.171D-01 0.101D-01 0.254D+00 0.762D+00
 Coeff:     -0.145D-04 0.301D-04 0.138D-03 0.243D-03 0.608D-03-0.969D-02
 Coeff:     -0.171D-01 0.101D-01 0.254D+00 0.762D+00
 Gap=     0.341 Goal=   None    Shift=    0.000
 RMSDP=5.63D-08 MaxDP=1.25D-06 DE=-2.75D-10 OVMax= 1.76D-06

 Cycle  11  Pass 1  IDiag  1:
 RMSU=  3.31D-08    CP:  9.50D-01  9.26D-01  1.01D+00  6.95D-01  9.40D-01
                    CP:  1.17D+00  9.44D-01  1.02D+00  1.03D+00  9.67D-01
 E= -269.525500211247     Delta-E=       -0.000000000033 Rises=F Damp=F
 DIIS: error= 5.62D-08 at cycle  11 NSaved=  11.
 NSaved=11 IEnMin=11 EnMin= -269.525500211247     IErMin=11 ErrMin= 5.62D-08
 ErrMax= 5.62D-08  0.00D+00 EMaxC= 1.00D-01 BMatC= 6.68D-13 BMatP= 3.08D-11
 IDIUse=1 WtCom= 1.00D+00 WtEn= 0.00D+00
 Coeff-Com: -0.131D-05 0.293D-05 0.230D-04 0.414D-04 0.216D-03-0.568D-03
 Coeff-Com: -0.335D-02-0.140D-01-0.868D-02 0.727D-01 0.954D+00
 Coeff:     -0.131D-05 0.293D-05 0.230D-04 0.414D-04 0.216D-03-0.568D-03
 Coeff:     -0.335D-02-0.140D-01-0.868D-02 0.727D-01 0.954D+00
 Gap=     0.341 Goal=   None    Shift=    0.000
 RMSDP=1.82D-08 MaxDP=7.03D-07 DE=-3.31D-11 OVMax= 6.09D-07

 Cycle  12  Pass 1  IDiag  1:
 RMSU=  1.06D-08    CP:  9.50D-01  9.26D-01  1.01D+00  6.95D-01  9.40D-01
                    CP:  1.17D+00  9.45D-01  1.02D+00  1.05D+00  1.02D+00
                    CP:  1.08D+00
 E= -269.525500211245     Delta-E=        0.000000000003 Rises=F Damp=F
 DIIS: error= 1.32D-08 at cycle  12 NSaved=  12.
 NSaved=12 IEnMin=11 EnMin= -269.525500211247     IErMin=12 ErrMin= 1.32D-08
 ErrMax= 1.32D-08  0.00D+00 EMaxC= 1.00D-01 BMatC= 6.17D-14 BMatP= 6.68D-13
 IDIUse=1 WtCom= 1.00D+00 WtEn= 0.00D+00
 Coeff-Com:  0.823D-06-0.158D-05-0.512D-05-0.103D-04-0.140D-04 0.552D-03
 Coeff-Com:  0.537D-03-0.343D-02-0.182D-01-0.361D-01 0.191D+00 0.866D+00
 Coeff:      0.823D-06-0.158D-05-0.512D-05-0.103D-04-0.140D-04 0.552D-03
 Coeff:      0.537D-03-0.343D-02-0.182D-01-0.361D-01 0.191D+00 0.866D+00
 Gap=     0.341 Goal=   None    Shift=    0.000
 RMSDP=3.78D-09 MaxDP=7.20D-08 DE= 2.61D-12 OVMax= 1.74D-07

 SCF Done:  E(RM062X) =  -269.525500211     A.U. after   12 cycles
            NFock= 12  Conv=0.38D-08     -V/T= 2.0039
 KE= 2.684896719572D+02 PE=-1.001377722992D+03 EE= 2.784638915498D+02
 Leave Link  502 at Mon Nov 10 19:45:22 2025, MaxMem=    33554432 cpu:        24.4
 (Enter /opt/programs/gaussian/g09/d_pgi133/l601.exe)
 Copying SCF densities to generalized density rwf, IOpCl= 0 IROHF=0.

 **********************************************************************

            Population analysis using the SCF density.

 **********************************************************************

 Orbital symmetries:
       Occupied  (A) (A) (A) (A) (A) (A) (A) (A) (A) (A) (A) (A)
                 (A) (A) (A) (A) (A) (A) (A) (A) (A)
       Virtual   (A) (A) (A) (A) (A) (A) (A) (A) (A) (A) (A) (A)
                 (A) (A) (A) (A) (A) (A) (A) (A) (A) (A) (A) (A)
                 (A) (A) (A) (A) (A) (A) (A) (A) (A) (A) (A) (A)
                 (A) (A) (A) (A) (A) (A) (A) (A) (A) (A) (A) (A)
                 (A) (A) (A) (A) (A) (A) (A) (A) (A) (A) (A) (A)
                 (A) (A) (A) (A) (A) (A) (A) (A) (A) (A) (A) (A)
                 (A) (A) (A) (A) (A) (A) (A) (A) (A) (A) (A) (A)
                 (A) (A) (A) (A) (A) (A) (A) (A) (A) (A) (A) (A)
                 (A) (A) (A) (A) (A) (A) (A) (A) (A) (A) (A) (A)
                 (A) (A) (A) (A) (A) (A) (A) (A) (A) (A) (A) (A)
                 (A) (A) (A) (A) (A) (A) (A) (A) (A) (A) (A) (A)
                 (A) (A) (A) (A) (A) (A) (A) (A) (A) (A) (A) (A)
                 (A)
 The electronic state is 1-A.
 Alpha  occ. eigenvalues --  -19.62874 -19.62393 -10.59460 -10.58729 -10.53771
 Alpha  occ. eigenvalues --   -1.15009  -1.14564  -0.87693  -0.76283  -0.68879
 Alpha  occ. eigenvalues --   -0.61025  -0.57717  -0.55073  -0.51274  -0.49132
 Alpha  occ. eigenvalues --   -0.46148  -0.44121  -0.41227  -0.39347  -0.35723
 Alpha  occ. eigenvalues --   -0.34833
 Alpha virt. eigenvalues --   -0.00777   0.00103   0.01490   0.01996   0.03489
 Alpha virt. eigenvalues --    0.04819   0.05300   0.05594   0.07818   0.09520
 Alpha virt. eigenvalues --    0.09737   0.11150   0.11777   0.12635   0.13128
 Alpha virt. eigenvalues --    0.13446   0.14252   0.14938   0.15931   0.17133
 Alpha virt. eigenvalues --    0.19599   0.20373   0.21429   0.21844   0.23154
 Alpha virt. eigenvalues --    0.23817   0.24987   0.26321   0.27205   0.29124
 Alpha virt. eigenvalues --    0.29682   0.31345   0.32163   0.32529   0.33123
 Alpha virt. eigenvalues --    0.35441   0.36092   0.37508   0.39894   0.41399
 Alpha virt. eigenvalues --    0.47482   0.47876   0.49492   0.55636   0.57297
 Alpha virt. eigenvalues --    0.59721   0.61382   0.61846   0.63040   0.67939
 Alpha virt. eigenvalues --    0.69465   0.69943   0.70602   0.72658   0.73162
 Alpha virt. eigenvalues --    0.76360   0.79153   0.92233   0.94815   0.97557
 Alpha virt. eigenvalues --    1.02950   1.07140   1.13345   1.15015   1.19648
 Alpha virt. eigenvalues --    1.21179   1.24314   1.29549   1.31179   1.35221
 Alpha virt. eigenvalues --    1.37923   1.43307   1.45258   1.45698   1.52749
 Alpha virt. eigenvalues --    1.55478   1.57079   1.59894   1.60700   1.61680
 Alpha virt. eigenvalues --    1.64366   1.66680   1.68603   1.69884   1.73234
 Alpha virt. eigenvalues --    1.77554   1.79805   1.83553   1.88022   1.90206
 Alpha virt. eigenvalues --    1.96606   2.02510   2.04170   2.08234   2.12232
 Alpha virt. eigenvalues --    2.13498   2.14040   2.19640   2.26753   2.32544
 Alpha virt. eigenvalues --    2.37180   2.45978   2.50381   2.51542   2.55256
 Alpha virt. eigenvalues --    2.58007   2.59333   2.60553   2.63210   2.66875
 Alpha virt. eigenvalues --    2.72916   2.74960   2.79452   2.86281   2.96153
 Alpha virt. eigenvalues --    2.98518   3.01849   3.12275   3.16297   3.18636
 Alpha virt. eigenvalues --    3.21812   3.26568   3.31291   3.35019   3.46319
 Alpha virt. eigenvalues --    3.73275   3.80473   3.84891   3.91411   3.94111
 Alpha virt. eigenvalues --    4.05231   4.09154   4.20019   4.35651   5.16565
 Alpha virt. eigenvalues --    5.19633   5.48400   5.50551   5.73329   5.74670
 Alpha virt. eigenvalues --   23.89113  23.91911  23.97479  50.01702  50.02750
          Condensed to atoms (all electrons):
               1          2          3          4          5          6
     1  C    5.599348   0.408446   0.374790  -0.112643  -0.036167  -0.068521
     2  H    0.408446   0.661392  -0.099177  -0.057777   0.026570  -0.005232
     3  H    0.374790  -0.099177   0.663982  -0.030043  -0.027910   0.010374
     4  C   -0.112643  -0.057777  -0.030043   5.688921   0.361126   0.510551
     5  H   -0.036167   0.026570  -0.027910   0.361126   0.642510  -0.071252
     6  H   -0.068521  -0.005232   0.010374   0.510551  -0.071252   0.496905
     7  C   -0.004235  -0.031406   0.023283   0.017177  -0.001435  -0.074112
     8  H    0.004106  -0.011930  -0.001999   0.062464  -0.052665   0.024221
     9  H   -0.009465   0.009932  -0.001929  -0.069617   0.023307  -0.023709
    10  O    0.206824  -0.053530  -0.063551  -0.073519   0.023137  -0.025216
    11  H    0.020883  -0.008733  -0.002999  -0.022482  -0.003897   0.004725
    12  O    0.028086   0.003343  -0.002408  -0.083244  -0.028522   0.019339
    13  H    0.004128   0.001331  -0.000283  -0.008223   0.013060  -0.004925
               7          8          9         10         11         12
     1  C   -0.004235   0.004106  -0.009465   0.206824   0.020883   0.028086
     2  H   -0.031406  -0.011930   0.009932  -0.053530  -0.008733   0.003343
     3  H    0.023283  -0.001999  -0.001929  -0.063551  -0.002999  -0.002408
     4  C    0.017177   0.062464  -0.069617  -0.073519  -0.022482  -0.083244
     5  H   -0.001435  -0.052665   0.023307   0.023137  -0.003897  -0.028522
     6  H   -0.074112   0.024221  -0.023709  -0.025216   0.004725   0.019339
     7  C    5.568482   0.246350   0.469472  -0.026264   0.007349   0.209708
     8  H    0.246350   0.710715  -0.094911  -0.001834   0.002039  -0.021522
     9  H    0.469472  -0.094911   0.570987   0.000262  -0.002428  -0.088969
    10  O   -0.026264  -0.001834   0.000262   8.047050   0.245509  -0.001748
    11  H    0.007349   0.002039  -0.002428   0.245509   0.502446  -0.000045
    12  O    0.209708  -0.021522  -0.088969  -0.001748  -0.000045   7.972534
    13  H   -0.027368  -0.020488   0.018406  -0.000279   0.000021   0.256329
              13
     1  C    0.004128
     2  H    0.001331
     3  H   -0.000283
     4  C   -0.008223
     5  H    0.013060
     6  H   -0.004925
     7  C   -0.027368
     8  H   -0.020488
     9  H    0.018406
    10  O   -0.000279
    11  H    0.000021
    12  O    0.256329
    13  H    0.518659
 Mulliken charges:
               1
     1  C   -0.415581
     2  H    0.156770
     3  H    0.157871
     4  C   -0.182691
     5  H    0.132138
     6  H    0.206852
     7  C   -0.376999
     8  H    0.155454
     9  H    0.198662
    10  O   -0.276841
    11  H    0.257612
    12  O   -0.262880
    13  H    0.249632
 Sum of Mulliken charges =   0.00000
 Mulliken charges with hydrogens summed into heavy atoms:
               1
     1  C   -0.100939
     4  C    0.156299
     7  C   -0.022884
    10  O   -0.019229
    12  O   -0.013248
 Electronic spatial extent (au):  <R**2>=            608.8794
 Charge=              0.0000 electrons
 Dipole moment (field-independent basis, Debye):
    X=              1.4329    Y=              2.1828    Z=              1.8478  Tot=              3.1987
 Quadrupole moment (field-independent basis, Debye-Ang):
   XX=            -32.0199   YY=            -33.1791   ZZ=            -30.7788
   XY=              2.9930   XZ=             -4.2910   YZ=             -1.2620
 Traceless Quadrupole moment (field-independent basis, Debye-Ang):
   XX=             -0.0273   YY=             -1.1865   ZZ=              1.2138
   XY=              2.9930   XZ=             -4.2910   YZ=             -1.2620
 Octapole moment (field-independent basis, Debye-Ang**2):
  XXX=             32.9514  YYY=             -1.0873  ZZZ=              0.2704  XYY=             -1.2318
  XXY=             10.1203  XXZ=             10.5913  XZZ=             -3.4536  YZZ=             -0.1775
  YYZ=             -0.2203  XYZ=              0.9321
 Hexadecapole moment (field-independent basis, Debye-Ang**3):
 XXXX=           -516.8289 YYYY=            -89.1237 ZZZZ=            -72.1356 XXXY=             22.6180
 XXXZ=            -54.9380 YYYX=              0.1881 YYYZ=              0.4910 ZZZX=             -3.9444
 ZZZY=             -0.9263 XXYY=           -119.0591 XXZZ=           -101.3404 YYZZ=            -27.9713
 XXYZ=             -7.2808 YYXZ=             -2.6720 ZZXY=              2.4553
 N-N= 1.848986592734D+02 E-N=-1.001377723764D+03  KE= 2.684896719572D+02
 No NMR shielding tensors so no spin-rotation constants.
 Leave Link  601 at Mon Nov 10 19:45:22 2025, MaxMem=    33554432 cpu:         0.0
 (Enter /opt/programs/gaussian/g09/d_pgi133/l9999.exe)
 1\1\GINC-EXADE5\SP\RM062X\6-311++G(d,p)\C3H8O2\APINTO\10-Nov-2025\0\\#
 p M062X/6-311++G(d,p)\\SP\\0,1\C,0,1.395723,-0.106737,0.15954\H,0,1.29
 5313,-0.065642,1.257647\H,0,1.811568,-1.096736,-0.082579\C,0,0.017915,
 0.075448,-0.49969\H,0,-0.20242,-0.766282,-1.169276\H,0,0.05785,0.97523
 9,-1.121086\C,0,-1.115565,0.222677,0.517979\H,0,-1.137978,-0.653457,1.
 188419\H,0,-0.932983,1.100545,1.14728\O,0,2.252417,0.933204,-0.304577\
 H,0,3.111159,0.825104,0.124384\O,0,-2.382301,0.437102,-0.087997\H,0,-2
 .583073,-0.339174,-0.627309\\Version=ES64L-G09RevD.01\State=1-A\HF=-26
 9.5255002\RMSD=3.777e-09\Dipole=0.6380886,-1.0326868,0.3319314\Quadrup
 ole=0.0795523,-0.2271112,0.1475588,1.6426349,3.4945907,1.3623164\PG=C0
 1 [X(C3H8O2)]\\@


 "THE ACADEMIC HIERARCHY"


 THE PRESIDENT:
   LEAPS TALL BUILDINGS IN A SINGLE BOUND,
     IS MORE POWERFUL THAN A LOCOMOTIVE,
       IS FASTER THAN A SPEEDING BULLET,
         WALKS ON WATER,
           GIVES POLICY TO GOD.

 THE VICE PRESIDENT FOR ACADEMIC AFFAIRS:
   LEAPS SHORT BUILDINGS IN A SINGLE BOUND,
     IS MORE POWERFUL THAN A SWITCH ENGINE,
       IS JUST AS FAST AS A SPEEDING BULLET,
         WALKS ON WATER IF SEA IS CALM,
           TALKS WITH GOD.

 PROFESSOR:
   LEAPS SHORT BUILDINGS WITH A RUNNING START AND FAVORABLE WINDS,
     IS ALMOST AS POWERFUL AS A SWITCH ENGINE,
       CAN FIRE A SPEEDING BULLET,
         WALKS ON WATER IN AN INDOOR SWIMMING POOL,
          TALKS WITH GOD IF SPECIAL REQUEST IS APPROVED.

 ASSOCIATE PROFESSOR:
   BARELY CLEARS A QUONSET HUT,
     LOSES TUG OF WAR WITH LOCOMOTIVE,
       MISFIRES FREQUENTLY,
         SWIMS WELL,
           IS OCCASIONALLY ADDRESSED BY GOD.

 ASSISTANT PROFESSOR:
   MAKES HIGH MARKS ON WALLS WHEN TRYING TO LEAP TALL BUILDINGS,
     IS RUN OVER BY LOCOMOTIVES,
       CAN SOMETIMES HANDLE A GUN WITHOUT INFLICTING SELF INJURY,
         DOG PADDLES,
           TALKS TO ANIMALS.

 GRADUATE STUDENT:
   RUNS INTO BUILDINGS,
     RECOGNIZES LOCOMOTIVES TWO OUT OF THREE TIMES,
       IS NOT ISSUED AMMUNITION,
         CAN STAY AFLOAT WITH A LIFE JACKET,
           TALKS TO WALLS.

 UNDERGRADUATE AND WORK STUDY STUDENT:
   FALLS OVER DOORSTEP WHEN TRYING TO ENTER BUILDINGS,
     SAYS, "LOOK AT THE CHOO-CHOO,"
       WETS HIMSELF WITH A WATER PISTOL,
        PLAYS IN MUD PUDDLES,
          MUMBLES TO HIMSELF.

 DEPARTMENT SECRETARY:
   LIFTS TALL BUILDINGS AND WALKS UNDER THEM,
     KICKS LOCOMOTIVES OFF THE TRACKS,
       CATCHES SPEEDING BULLETS IN HER TEETH AND EATS THEM,
         FREEZES WATER WITH A SINGLE GLANCE,
           IS GOD.
 Job cpu time:       0 days  0 hours  0 minutes 26.0 seconds.
 File lengths (MBytes):  RWF=     16 Int=      0 D2E=      0 Chk=      2 Scr=      1
 Normal termination of Gaussian 09 at Mon Nov 10 19:45:22 2025.
