 Entering Gaussian System, Link 0=g09
 Input=xbg.com
 Output=xbg.log
 Initial command:
 /opt/programs/gaussian/g09/d_pgi133/l1.exe "/scratch/users/apinto/lixo/Gau-1268699.inp" -scrdir="/scratch/users/apinto/lixo/"
 Entering Link 1 = /opt/programs/gaussian/g09/d_pgi133/l1.exe PID=   1268701.
  
 Copyright (c) 1988,1990,1992,1993,1995,1998,2003,2009,2013,
            Gaussian, Inc.  All Rights Reserved.
  
 This is part of the Gaussian(R) 09 program.  It is based on
 the Gaussian(R) 03 system (copyright 2003, Gaussian, Inc.),
 the Gaussian(R) 98 system (copyright 1998, Gaussian, Inc.),
 the Gaussian(R) 94 system (copyright 1995, Gaussian, Inc.),
 the Gaussian 92(TM) system (copyright 1992, Gaussian, Inc.),
 the Gaussian 90(TM) system (copyright 1990, Gaussian, Inc.),
 the Gaussian 88(TM) system (copyright 1988, Gaussian, Inc.),
 the Gaussian 86(TM) system (copyright 1986, Carnegie Mellon
 University), and the Gaussian 82(TM) system (copyright 1983,
 Carnegie Mellon University). Gaussian is a federally registered
 trademark of Gaussian, Inc.
  
 This software contains proprietary and confidential information,
 including trade secrets, belonging to Gaussian, Inc.
  
 This software is provided under written license and may be
 used, copied, transmitted, or stored only in accord with that
 written license.
  
 The following legend is applicable only to US Government
 contracts under FAR:
  
                    RESTRICTED RIGHTS LEGEND
  
 Use, reproduction and disclosure by the US Government is
 subject to restrictions as set forth in subparagraphs (a)
 and (c) of the Commercial Computer Software - Restricted
 Rights clause in FAR 52.227-19.
  
 Gaussian, Inc.
 340 Quinnipiac St., Bldg. 40, Wallingford CT 06492
  
  
 ---------------------------------------------------------------
 Warning -- This program may not be used in any manner that
 competes with the business of Gaussian, Inc. or will provide
 assistance to any competitor of Gaussian, Inc.  The licensee
 of this program is prohibited from giving any competitor of
 Gaussian, Inc. access to this program.  By using this program,
 the user acknowledges that Gaussian, Inc. is engaged in the
 business of creating and licensing software in the field of
 computational chemistry and represents and warrants to the
 licensee that it is not a competitor of Gaussian, Inc. and that
 it will not use this program in any manner prohibited above.
 ---------------------------------------------------------------
  

 Cite this work as:
 Gaussian 09, Revision D.01,
 M. J. Frisch, G. W. Trucks, H. B. Schlegel, G. E. Scuseria, 
 M. A. Robb, J. R. Cheeseman, G. Scalmani, V. Barone, B. Mennucci, 
 G. A. Petersson, H. Nakatsuji, M. Caricato, X. Li, H. P. Hratchian, 
 A. F. Izmaylov, J. Bloino, G. Zheng, J. L. Sonnenberg, M. Hada, 
 M. Ehara, K. Toyota, R. Fukuda, J. Hasegawa, M. Ishida, T. Nakajima, 
 Y. Honda, O. Kitao, H. Nakai, T. Vreven, J. A. Montgomery, Jr., 
 J. E. Peralta, F. Ogliaro, M. Bearpark, J. J. Heyd, E. Brothers, 
 K. N. Kudin, V. N. Staroverov, T. Keith, R. Kobayashi, J. Normand, 
 K. Raghavachari, A. Rendell, J. C. Burant, S. S. Iyengar, J. Tomasi, 
 M. Cossi, N. Rega, J. M. Millam, M. Klene, J. E. Knox, J. B. Cross, 
 V. Bakken, C. Adamo, J. Jaramillo, R. Gomperts, R. E. Stratmann, 
 O. Yazyev, A. J. Austin, R. Cammi, C. Pomelli, J. W. Ochterski, 
 R. L. Martin, K. Morokuma, V. G. Zakrzewski, G. A. Voth, 
 P. Salvador, J. J. Dannenberg, S. Dapprich, A. D. Daniels, 
 O. Farkas, J. B. Foresman, J. V. Ortiz, J. Cioslowski, 
 and D. J. Fox, Gaussian, Inc., Wallingford CT, 2013.
 
 ******************************************
 Gaussian 09:  ES64L-G09RevD.01 24-Apr-2013
                10-Nov-2025 
 ******************************************
 ----------------------
 #p M062X/6-311++G(d,p)
 ----------------------
 1/38=1/1;
 2/12=2,17=6,18=5,40=1/2;
 3/5=4,6=6,7=1111,11=2,16=1,25=1,30=1,74=-55/1,2,3;
 4//1;
 5/5=2,38=5/2;
 6/7=2,8=2,9=2,10=2,28=1/1;
 99/5=1,9=1/99;
 Leave Link    1 at Mon Nov 10 19:46:15 2025, MaxMem=           0 cpu:         0.0
 (Enter /opt/programs/gaussian/g09/d_pgi133/l101.exe)
 --
 SP
 --
 Symbolic Z-matrix:
 Charge =  0 Multiplicity = 1
 C                     1.4042   -0.15822   0.11042 
 H                     1.31053  -0.35271   1.19207 
 H                     1.91419  -1.03117  -0.32577 
 C                     0.01475   0.012    -0.52057 
 H                    -0.25154  -0.8965   -1.07828 
 H                     0.06277   0.83025  -1.24515 
 C                    -1.08435   0.28986   0.50792 
 H                    -1.11261  -0.52692   1.24901 
 H                    -0.85739   1.21152   1.05422 
 O                     2.15044   1.03095  -0.13612 
 H                     2.99282   0.95738   0.33056 
 O                    -2.36043   0.49254  -0.08217 
 H                    -2.59576  -0.31768  -0.55343 
 
 NAtoms=     13 NQM=       13 NQMF=       0 NMMI=      0 NMMIF=      0
                NMic=       0 NMicF=      0.
                    Isotopes and Nuclear Properties:
 (Nuclear quadrupole moments (NQMom) in fm**2, nuclear magnetic moments (NMagM)
  in nuclear magnetons)

  Atom         1           2           3           4           5           6           7           8           9          10
 IAtWgt=          12           1           1          12           1           1          12           1           1          16
 AtmWgt=  12.0000000   1.0078250   1.0078250  12.0000000   1.0078250   1.0078250  12.0000000   1.0078250   1.0078250  15.9949146
 NucSpn=           0           1           1           0           1           1           0           1           1           0
 AtZEff=   0.0000000   0.0000000   0.0000000   0.0000000   0.0000000   0.0000000   0.0000000   0.0000000   0.0000000   0.0000000
 NQMom=    0.0000000   0.0000000   0.0000000   0.0000000   0.0000000   0.0000000   0.0000000   0.0000000   0.0000000   0.0000000
 NMagM=    0.0000000   2.7928460   2.7928460   0.0000000   2.7928460   2.7928460   0.0000000   2.7928460   2.7928460   0.0000000
 AtZNuc=   6.0000000   1.0000000   1.0000000   6.0000000   1.0000000   1.0000000   6.0000000   1.0000000   1.0000000   8.0000000

  Atom        11          12          13
 IAtWgt=           1          16           1
 AtmWgt=   1.0078250  15.9949146   1.0078250
 NucSpn=           1           0           1
 AtZEff=   0.0000000   0.0000000   0.0000000
 NQMom=    0.0000000   0.0000000   0.0000000
 NMagM=    2.7928460   0.0000000   2.7928460
 AtZNuc=   1.0000000   8.0000000   1.0000000
 Leave Link  101 at Mon Nov 10 19:46:15 2025, MaxMem=    33554432 cpu:         0.0
 (Enter /opt/programs/gaussian/g09/d_pgi133/l202.exe)
                          Input orientation:                          
 ---------------------------------------------------------------------
 Center     Atomic      Atomic             Coordinates (Angstroms)
 Number     Number       Type             X           Y           Z
 ---------------------------------------------------------------------
      1          6           0        1.404196   -0.158215    0.110421
      2          1           0        1.310534   -0.352709    1.192066
      3          1           0        1.914190   -1.031173   -0.325768
      4          6           0        0.014747    0.012000   -0.520566
      5          1           0       -0.251541   -0.896504   -1.078275
      6          1           0        0.062772    0.830249   -1.245146
      7          6           0       -1.084351    0.289862    0.507922
      8          1           0       -1.112606   -0.526919    1.249015
      9          1           0       -0.857390    1.211516    1.054223
     10          8           0        2.150437    1.030946   -0.136117
     11          1           0        2.992821    0.957381    0.330560
     12          8           0       -2.360428    0.492535   -0.082172
     13          1           0       -2.595756   -0.317675   -0.553428
 ---------------------------------------------------------------------
                    Distance matrix (angstroms):
                    1          2          3          4          5
     1  C    0.000000
     2  H    1.102976   0.000000
     3  H    1.101095   1.768766   0.000000
     4  C    1.535476   2.178345   2.175785   0.000000
     5  H    2.167841   2.808957   2.296692   1.098785   0.000000
     6  H    2.148032   2.982667   2.781707   1.094008   1.763041
     7  C    2.559618   2.572241   3.381038   1.530690   2.148734
     8  H    2.786868   2.430062   3.449015   2.166281   2.508845
     9  H    2.807436   2.676882   3.823047   2.163197   3.059142
    10  O    1.425398   2.093802   2.084254   2.397337   3.220594
    11  H    1.953649   2.299700   2.355538   3.238377   3.993443
    12  O    3.825305   3.976692   4.544599   2.462633   2.714600
    13  H    4.057800   4.278677   4.571709   2.631443   2.471002
                    6          7          8          9         10
     6  H    0.000000
     7  C    2.163598   0.000000
     8  H    3.073151   1.103244   0.000000
     9  H    2.505825   1.095172   1.767834   0.000000
    10  O    2.372461   3.380510   3.872077   3.239836   0.000000
    11  H    3.329294   4.135259   4.461080   3.925863   0.965821
    12  O    2.708959   1.420444   2.090073   2.016792   4.543204
    13  H    2.977243   1.944199   2.343569   2.818667   4.951694
                   11         12         13
    11  H    0.000000
    12  O    5.389221   0.000000
    13  H    5.799948   0.966386   0.000000
 Stoichiometry    C3H8O2
 Framework group  C1[X(C3H8O2)]
 Deg. of freedom    33
 Full point group                 C1      NOp   1
 Largest Abelian subgroup         C1      NOp   1
 Largest concise Abelian subgroup C1      NOp   1
                         Standard orientation:                         
 ---------------------------------------------------------------------
 Center     Atomic      Atomic             Coordinates (Angstroms)
 Number     Number       Type             X           Y           Z
 ---------------------------------------------------------------------
      1          6           0       -1.333498    0.469250    0.296143
      2          1           0       -1.211789    0.333892    1.383995
      3          1           0       -1.805113    1.453416    0.149828
      4          6           0        0.034546    0.429993   -0.399989
      5          1           0        0.337863    1.449306   -0.676265
      6          1           0       -0.067719   -0.137037   -1.329975
      7          6           0        1.134996   -0.185493    0.467881
      8          1           0        1.217722    0.376173    1.413840
      9          1           0        0.870080   -1.215765    0.728190
     10          8           0       -2.144026   -0.561160   -0.263374
     11          1           0       -2.973546   -0.590312    0.230445
     12          8           0        2.388850   -0.262707   -0.195103
     13          1           0        2.657642    0.638766   -0.416459
 ---------------------------------------------------------------------
 Rotational constants (GHZ):     15.6128541      2.1157259      2.0791538
 Leave Link  202 at Mon Nov 10 19:46:15 2025, MaxMem=    33554432 cpu:         0.0
 (Enter /opt/programs/gaussian/g09/d_pgi133/l301.exe)
 Standard basis: 6-311++G(d,p) (5D, 7F)
 Ernie: Thresh=  0.10000D-02 Tol=  0.10000D-05 Strict=F.
 There are   171 symmetry adapted cartesian basis functions of A   symmetry.
 There are   166 symmetry adapted basis functions of A   symmetry.
   166 basis functions,   252 primitive gaussians,   171 cartesian basis functions
    21 alpha electrons       21 beta electrons
       nuclear repulsion energy       185.5183783883 Hartrees.
 IExCor= 4336 DFT=T Ex+Corr=M062X ExCW=0 ScaHFX=  0.540000
 ScaDFX=  1.000000  1.000000  1.000000  1.000000 ScalE2=  1.000000  1.000000
 IRadAn=      0 IRanWt=     -1 IRanGd=            0 ICorTp=0 IEmpDi=  4
 NAtoms=   13 NActive=   13 NUniq=   13 SFac= 1.00D+00 NAtFMM=   60 NAOKFM=F Big=F
 Integral buffers will be    131072 words long.
 Raffenetti 2 integral format.
 Two-electron integral symmetry is turned on.
 Leave Link  301 at Mon Nov 10 19:46:15 2025, MaxMem=    33554432 cpu:         0.0
 (Enter /opt/programs/gaussian/g09/d_pgi133/l302.exe)
 NPDir=0 NMtPBC=     1 NCelOv=     1 NCel=       1 NClECP=     1 NCelD=      1
         NCelK=      1 NCelE2=     1 NClLst=     1 CellRange=     0.0.
 One-electron integrals computed using PRISM.
 NBasis=   166 RedAO= T EigKep=  3.92D-05  NBF=   166
 NBsUse=   166 1.00D-06 EigRej= -1.00D+00 NBFU=   166
 Precomputing XC quadrature grid using
 IXCGrd= 4 IRadAn=           0 IRanWt=          -1 IRanGd=           0 AccXCQ= 0.00D+00.
 Generated NRdTot=       0 NPtTot=           0 NUsed=           0 NTot=          32
 NSgBfM=   171   171   171   171   171 MxSgAt=    13 MxSgA2=    13.
 Leave Link  302 at Mon Nov 10 19:46:15 2025, MaxMem=    33554432 cpu:         0.1
 (Enter /opt/programs/gaussian/g09/d_pgi133/l303.exe)
 DipDrv:  MaxL=1.
 Leave Link  303 at Mon Nov 10 19:46:15 2025, MaxMem=    33554432 cpu:         0.0
 (Enter /opt/programs/gaussian/g09/d_pgi133/l401.exe)
 ExpMin= 3.60D-02 ExpMax= 8.59D+03 ExpMxC= 1.30D+03 IAcc=3 IRadAn=         5 AccDes= 0.00D+00
 Harris functional with IExCor= 1009 and IRadAn=       5 diagonalized for initial guess.
 HarFok:  IExCor= 1009 AccDes= 0.00D+00 IRadAn=         5 IDoV= 1 UseB2=F ITyADJ=14
 ICtDFT=  3500011 ScaDFX=  1.000000  1.000000  1.000000  1.000000
 FoFCou: FMM=F IPFlag=           0 FMFlag=      100000 FMFlg1=           0
         NFxFlg=           0 DoJE=T BraDBF=F KetDBF=T FulRan=T
         wScrn=  0.000000 ICntrl=     500 IOpCl=  0 I1Cent=   200000004 NGrid=           0
         NMat0=    1 NMatS0=      1 NMatT0=    0 NMatD0=    1 NMtDS0=    0 NMtDT0=    0
 Petite list used in FoFCou.
 Harris En= -269.439997207731    
 JPrj=0 DoOrth=F DoCkMO=F.
 Leave Link  401 at Mon Nov 10 19:46:16 2025, MaxMem=    33554432 cpu:         1.5
 (Enter /opt/programs/gaussian/g09/d_pgi133/l502.exe)
 Closed shell SCF:
 Using DIIS extrapolation, IDIIS=  1040.
 Integral symmetry usage will be decided dynamically.
 IVT=      108587 IEndB=      108587 NGot=    33554432 MDV=    33491898
 LenX=    33491898 LenY=    33462216
 Requested convergence on RMS density matrix=1.00D-08 within 128 cycles.
 Requested convergence on MAX density matrix=1.00D-06.
 Requested convergence on             energy=1.00D-06.
 No special actions if energy rises.
 Fock matrices will be formed incrementally for  20 cycles.

 Cycle   1  Pass 1  IDiag  1:
 FoFJK:  IHMeth= 1 ICntrl=       0 DoSepK=F KAlg= 0 I1Cent=   0 FoldK=F
 IRaf= 980000000 NMat=   1 IRICut=       1 DoRegI=T DoRafI=F ISym2E= 0.
 FoFCou: FMM=F IPFlag=           0 FMFlag=      100000 FMFlg1=           0
         NFxFlg=           0 DoJE=F BraDBF=F KetDBF=F FulRan=T
         wScrn=  0.000000 ICntrl=       0 IOpCl=  0 I1Cent=           0 NGrid=           0
         NMat0=    1 NMatS0=      1 NMatT0=    0 NMatD0=    1 NMtDS0=    0 NMtDT0=    0
 Symmetry not used in FoFCou.
 E= -269.357457298672    
 DIIS: error= 3.09D-02 at cycle   1 NSaved=   1.
 NSaved= 1 IEnMin= 1 EnMin= -269.357457298672     IErMin= 1 ErrMin= 3.09D-02
 ErrMax= 3.09D-02  0.00D+00 EMaxC= 1.00D-01 BMatC= 2.35D-01 BMatP= 2.35D-01
 IDIUse=3 WtCom= 6.91D-01 WtEn= 3.09D-01
 Coeff-Com:  0.100D+01
 Coeff-En:   0.100D+01
 Coeff:      0.100D+01
 Gap=     0.292 Goal=   None    Shift=    0.000
 GapD=    0.292 DampG=1.000 DampE=0.500 DampFc=0.5000 IDamp=-1.
 Damping current iteration by 5.00D-01
 RMSDP=7.36D-03 MaxDP=1.63D-01              OVMax= 1.35D-01

 Cycle   2  Pass 1  IDiag  1:
 RMSU=  3.68D-03    CP:  9.96D-01
 E= -269.438498528856     Delta-E=       -0.081041230184 Rises=F Damp=T
 DIIS: error= 6.75D-03 at cycle   2 NSaved=   2.
 NSaved= 2 IEnMin= 2 EnMin= -269.438498528856     IErMin= 2 ErrMin= 6.75D-03
 ErrMax= 6.75D-03  0.00D+00 EMaxC= 1.00D-01 BMatC= 1.53D-02 BMatP= 2.35D-01
 IDIUse=3 WtCom= 9.33D-01 WtEn= 6.75D-02
 Coeff-Com: -0.330D-01 0.103D+01
 Coeff-En:   0.000D+00 0.100D+01
 Coeff:     -0.308D-01 0.103D+01
 Gap=     0.348 Goal=   None    Shift=    0.000
 RMSDP=2.35D-03 MaxDP=1.15D-01 DE=-8.10D-02 OVMax= 7.65D-02

 Cycle   3  Pass 1  IDiag  1:
 RMSU=  2.14D-03    CP:  9.64D-01  7.75D-01
 E= -269.523555800864     Delta-E=       -0.085057272008 Rises=F Damp=F
 DIIS: error= 5.11D-03 at cycle   3 NSaved=   3.
 NSaved= 3 IEnMin= 3 EnMin= -269.523555800864     IErMin= 3 ErrMin= 5.11D-03
 ErrMax= 5.11D-03  0.00D+00 EMaxC= 1.00D-01 BMatC= 4.22D-03 BMatP= 1.53D-02
 IDIUse=3 WtCom= 9.49D-01 WtEn= 5.11D-02
 Coeff-Com: -0.767D-01 0.321D+00 0.756D+00
 Coeff-En:   0.000D+00 0.000D+00 0.100D+01
 Coeff:     -0.728D-01 0.305D+00 0.768D+00
 Gap=     0.341 Goal=   None    Shift=    0.000
 RMSDP=4.47D-04 MaxDP=1.61D-02 DE=-8.51D-02 OVMax= 1.12D-02

 Cycle   4  Pass 1  IDiag  1:
 RMSU=  3.57D-04    CP:  9.66D-01  8.47D-01  9.87D-01
 E= -269.525761637296     Delta-E=       -0.002205836432 Rises=F Damp=F
 DIIS: error= 1.89D-03 at cycle   4 NSaved=   4.
 NSaved= 4 IEnMin= 4 EnMin= -269.525761637296     IErMin= 4 ErrMin= 1.89D-03
 ErrMax= 1.89D-03  0.00D+00 EMaxC= 1.00D-01 BMatC= 8.30D-04 BMatP= 4.22D-03
 IDIUse=3 WtCom= 9.81D-01 WtEn= 1.89D-02
 Coeff-Com: -0.316D-01 0.837D-01 0.376D+00 0.572D+00
 Coeff-En:   0.000D+00 0.000D+00 0.130D+00 0.870D+00
 Coeff:     -0.310D-01 0.821D-01 0.371D+00 0.578D+00
 Gap=     0.339 Goal=   None    Shift=    0.000
 RMSDP=1.78D-04 MaxDP=6.50D-03 DE=-2.21D-03 OVMax= 4.85D-03

 Cycle   5  Pass 1  IDiag  1:
 RMSU=  1.08D-04    CP:  9.63D-01  8.30D-01  9.93D-01  6.72D-01
 E= -269.526438751151     Delta-E=       -0.000677113855 Rises=F Damp=F
 DIIS: error= 1.59D-04 at cycle   5 NSaved=   5.
 NSaved= 5 IEnMin= 5 EnMin= -269.526438751151     IErMin= 5 ErrMin= 1.59D-04
 ErrMax= 1.59D-04  0.00D+00 EMaxC= 1.00D-01 BMatC= 8.39D-06 BMatP= 8.30D-04
 IDIUse=3 WtCom= 9.98D-01 WtEn= 1.59D-03
 Coeff-Com: -0.354D-02 0.485D-02 0.495D-01 0.138D+00 0.811D+00
 Coeff-En:   0.000D+00 0.000D+00 0.000D+00 0.000D+00 0.100D+01
 Coeff:     -0.354D-02 0.484D-02 0.495D-01 0.138D+00 0.812D+00
 Gap=     0.339 Goal=   None    Shift=    0.000
 RMSDP=3.88D-05 MaxDP=9.88D-04 DE=-6.77D-04 OVMax= 5.91D-04

 Cycle   6  Pass 1  IDiag  1:
 RMSU=  2.55D-05    CP:  9.63D-01  8.23D-01  9.99D-01  7.01D-01  9.02D-01
 E= -269.526445822632     Delta-E=       -0.000007071481 Rises=F Damp=F
 DIIS: error= 2.25D-05 at cycle   6 NSaved=   6.
 NSaved= 6 IEnMin= 6 EnMin= -269.526445822632     IErMin= 6 ErrMin= 2.25D-05
 ErrMax= 2.25D-05  0.00D+00 EMaxC= 1.00D-01 BMatC= 1.66D-07 BMatP= 8.39D-06
 IDIUse=1 WtCom= 1.00D+00 WtEn= 0.00D+00
 Coeff-Com:  0.661D-03-0.195D-02-0.592D-02-0.212D-02 0.689D-01 0.940D+00
 Coeff:      0.661D-03-0.195D-02-0.592D-02-0.212D-02 0.689D-01 0.940D+00
 Gap=     0.339 Goal=   None    Shift=    0.000
 RMSDP=9.46D-06 MaxDP=3.58D-04 DE=-7.07D-06 OVMax= 1.53D-04

 Cycle   7  Pass 1  IDiag  1:
 RMSU=  5.60D-06    CP:  9.63D-01  8.22D-01  9.99D-01  7.06D-01  9.34D-01
                    CP:  1.08D+00
 E= -269.526445993238     Delta-E=       -0.000000170607 Rises=F Damp=F
 DIIS: error= 1.25D-05 at cycle   7 NSaved=   7.
 NSaved= 7 IEnMin= 7 EnMin= -269.526445993238     IErMin= 7 ErrMin= 1.25D-05
 ErrMax= 1.25D-05  0.00D+00 EMaxC= 1.00D-01 BMatC= 5.44D-08 BMatP= 1.66D-07
 IDIUse=1 WtCom= 1.00D+00 WtEn= 0.00D+00
 Coeff-Com:  0.564D-03-0.121D-02-0.637D-02-0.114D-01-0.342D-01 0.386D+00
 Coeff-Com:  0.666D+00
 Coeff:      0.564D-03-0.121D-02-0.637D-02-0.114D-01-0.342D-01 0.386D+00
 Coeff:      0.666D+00
 Gap=     0.339 Goal=   None    Shift=    0.000
 RMSDP=2.63D-06 MaxDP=5.72D-05 DE=-1.71D-07 OVMax= 4.74D-05

 Cycle   8  Pass 1  IDiag  1:
 RMSU=  1.07D-06    CP:  9.63D-01  8.21D-01  9.99D-01  7.06D-01  9.34D-01
                    CP:  1.14D+00  8.75D-01
 E= -269.526446038528     Delta-E=       -0.000000045290 Rises=F Damp=F
 DIIS: error= 2.91D-06 at cycle   8 NSaved=   8.
 NSaved= 8 IEnMin= 8 EnMin= -269.526446038528     IErMin= 8 ErrMin= 2.91D-06
 ErrMax= 2.91D-06  0.00D+00 EMaxC= 1.00D-01 BMatC= 3.99D-09 BMatP= 5.44D-08
 IDIUse=1 WtCom= 1.00D+00 WtEn= 0.00D+00
 Coeff-Com:  0.162D-03-0.317D-03-0.200D-02-0.414D-02-0.182D-01 0.823D-01
 Coeff-Com:  0.261D+00 0.681D+00
 Coeff:      0.162D-03-0.317D-03-0.200D-02-0.414D-02-0.182D-01 0.823D-01
 Coeff:      0.261D+00 0.681D+00
 Gap=     0.339 Goal=   None    Shift=    0.000
 RMSDP=7.49D-07 MaxDP=2.59D-05 DE=-4.53D-08 OVMax= 1.43D-05

 Cycle   9  Pass 1  IDiag  1:
 RMSU=  4.07D-07    CP:  9.63D-01  8.21D-01  9.99D-01  7.07D-01  9.35D-01
                    CP:  1.14D+00  9.40D-01  8.84D-01
 E= -269.526446041449     Delta-E=       -0.000000002921 Rises=F Damp=F
 DIIS: error= 1.19D-06 at cycle   9 NSaved=   9.
 NSaved= 9 IEnMin= 9 EnMin= -269.526446041449     IErMin= 9 ErrMin= 1.19D-06
 ErrMax= 1.19D-06  0.00D+00 EMaxC= 1.00D-01 BMatC= 3.15D-10 BMatP= 3.99D-09
 IDIUse=1 WtCom= 1.00D+00 WtEn= 0.00D+00
 Coeff-Com:  0.576D-05-0.602D-05-0.176D-03-0.494D-03-0.365D-02-0.365D-02
 Coeff-Com:  0.332D-01 0.240D+00 0.735D+00
 Coeff:      0.576D-05-0.602D-05-0.176D-03-0.494D-03-0.365D-02-0.365D-02
 Coeff:      0.332D-01 0.240D+00 0.735D+00
 Gap=     0.339 Goal=   None    Shift=    0.000
 RMSDP=1.63D-07 MaxDP=3.31D-06 DE=-2.92D-09 OVMax= 4.94D-06

 Cycle  10  Pass 1  IDiag  1:
 RMSU=  1.09D-07    CP:  9.63D-01  8.21D-01  9.99D-01  7.07D-01  9.35D-01
                    CP:  1.14D+00  9.50D-01  9.44D-01  9.88D-01
 E= -269.526446041708     Delta-E=       -0.000000000259 Rises=F Damp=F
 DIIS: error= 3.18D-07 at cycle  10 NSaved=  10.
 NSaved=10 IEnMin=10 EnMin= -269.526446041708     IErMin=10 ErrMin= 3.18D-07
 ErrMax= 3.18D-07  0.00D+00 EMaxC= 1.00D-01 BMatC= 3.33D-11 BMatP= 3.15D-10
 IDIUse=1 WtCom= 1.00D+00 WtEn= 0.00D+00
 Coeff-Com: -0.142D-04 0.296D-04 0.134D-03 0.237D-03 0.547D-03-0.931D-02
 Coeff-Com: -0.172D-01 0.618D-02 0.270D+00 0.750D+00
 Coeff:     -0.142D-04 0.296D-04 0.134D-03 0.237D-03 0.547D-03-0.931D-02
 Coeff:     -0.172D-01 0.618D-02 0.270D+00 0.750D+00
 Gap=     0.339 Goal=   None    Shift=    0.000
 RMSDP=5.85D-08 MaxDP=1.79D-06 DE=-2.59D-10 OVMax= 1.76D-06

 Cycle  11  Pass 1  IDiag  1:
 RMSU=  3.44D-08    CP:  9.63D-01  8.21D-01  9.99D-01  7.07D-01  9.35D-01
                    CP:  1.14D+00  9.56D-01  9.65D-01  1.03D+00  9.99D-01
 E= -269.526446041742     Delta-E=       -0.000000000034 Rises=F Damp=F
 DIIS: error= 5.68D-08 at cycle  11 NSaved=  11.
 NSaved=11 IEnMin=11 EnMin= -269.526446041742     IErMin=11 ErrMin= 5.68D-08
 ErrMax= 5.68D-08  0.00D+00 EMaxC= 1.00D-01 BMatC= 7.35D-13 BMatP= 3.33D-11
 IDIUse=1 WtCom= 1.00D+00 WtEn= 0.00D+00
 Coeff-Com: -0.167D-05 0.365D-05 0.268D-04 0.493D-04 0.236D-03-0.716D-03
 Coeff-Com: -0.399D-02-0.136D-01-0.653D-02 0.828D-01 0.942D+00
 Coeff:     -0.167D-05 0.365D-05 0.268D-04 0.493D-04 0.236D-03-0.716D-03
 Coeff:     -0.399D-02-0.136D-01-0.653D-02 0.828D-01 0.942D+00
 Gap=     0.339 Goal=   None    Shift=    0.000
 RMSDP=2.10D-08 MaxDP=8.86D-07 DE=-3.35D-11 OVMax= 6.19D-07

 Cycle  12  Pass 1  IDiag  1:
 RMSU=  1.13D-08    CP:  9.63D-01  8.21D-01  9.99D-01  7.07D-01  9.35D-01
                    CP:  1.14D+00  9.58D-01  9.67D-01  1.05D+00  1.07D+00
                    CP:  1.07D+00
 E= -269.526446041740     Delta-E=        0.000000000002 Rises=F Damp=F
 DIIS: error= 1.37D-08 at cycle  12 NSaved=  12.
 NSaved=12 IEnMin=11 EnMin= -269.526446041742     IErMin=12 ErrMin= 1.37D-08
 ErrMax= 1.37D-08  0.00D+00 EMaxC= 1.00D-01 BMatC= 5.71D-14 BMatP= 7.35D-13
 IDIUse=1 WtCom= 1.00D+00 WtEn= 0.00D+00
 Coeff-Com:  0.813D-06-0.157D-05-0.527D-05-0.106D-04-0.170D-04 0.525D-03
 Coeff-Com:  0.584D-03-0.253D-02-0.184D-01-0.361D-01 0.154D+00 0.902D+00
 Coeff:      0.813D-06-0.157D-05-0.527D-05-0.106D-04-0.170D-04 0.525D-03
 Coeff:      0.584D-03-0.253D-02-0.184D-01-0.361D-01 0.154D+00 0.902D+00
 Gap=     0.339 Goal=   None    Shift=    0.000
 RMSDP=4.37D-09 MaxDP=1.13D-07 DE= 2.16D-12 OVMax= 1.81D-07

 SCF Done:  E(RM062X) =  -269.526446042     A.U. after   12 cycles
            NFock= 12  Conv=0.44D-08     -V/T= 2.0039
 KE= 2.684905081782D+02 PE=-1.002633671605D+03 EE= 2.790983389970D+02
 Leave Link  502 at Mon Nov 10 19:46:41 2025, MaxMem=    33554432 cpu:        24.6
 (Enter /opt/programs/gaussian/g09/d_pgi133/l601.exe)
 Copying SCF densities to generalized density rwf, IOpCl= 0 IROHF=0.

 **********************************************************************

            Population analysis using the SCF density.

 **********************************************************************

 Orbital symmetries:
       Occupied  (A) (A) (A) (A) (A) (A) (A) (A) (A) (A) (A) (A)
                 (A) (A) (A) (A) (A) (A) (A) (A) (A)
       Virtual   (A) (A) (A) (A) (A) (A) (A) (A) (A) (A) (A) (A)
                 (A) (A) (A) (A) (A) (A) (A) (A) (A) (A) (A) (A)
                 (A) (A) (A) (A) (A) (A) (A) (A) (A) (A) (A) (A)
                 (A) (A) (A) (A) (A) (A) (A) (A) (A) (A) (A) (A)
                 (A) (A) (A) (A) (A) (A) (A) (A) (A) (A) (A) (A)
                 (A) (A) (A) (A) (A) (A) (A) (A) (A) (A) (A) (A)
                 (A) (A) (A) (A) (A) (A) (A) (A) (A) (A) (A) (A)
                 (A) (A) (A) (A) (A) (A) (A) (A) (A) (A) (A) (A)
                 (A) (A) (A) (A) (A) (A) (A) (A) (A) (A) (A) (A)
                 (A) (A) (A) (A) (A) (A) (A) (A) (A) (A) (A) (A)
                 (A) (A) (A) (A) (A) (A) (A) (A) (A) (A) (A) (A)
                 (A) (A) (A) (A) (A) (A) (A) (A) (A) (A) (A) (A)
                 (A)
 The electronic state is 1-A.
 Alpha  occ. eigenvalues --  -19.62858 -19.62308 -10.59456 -10.58563 -10.53811
 Alpha  occ. eigenvalues --   -1.14996  -1.14474  -0.87681  -0.76319  -0.68764
 Alpha  occ. eigenvalues --   -0.61056  -0.58002  -0.54414  -0.51244  -0.49449
 Alpha  occ. eigenvalues --   -0.45927  -0.44185  -0.41183  -0.39454  -0.35772
 Alpha  occ. eigenvalues --   -0.34660
 Alpha virt. eigenvalues --   -0.00794   0.00131   0.01589   0.01978   0.03619
 Alpha virt. eigenvalues --    0.04830   0.05211   0.05527   0.07289   0.09666
 Alpha virt. eigenvalues --    0.09888   0.11224   0.11721   0.12723   0.13330
 Alpha virt. eigenvalues --    0.13591   0.13987   0.15248   0.16235   0.16894
 Alpha virt. eigenvalues --    0.19344   0.20771   0.21252   0.21943   0.22896
 Alpha virt. eigenvalues --    0.24215   0.25512   0.26376   0.27390   0.28951
 Alpha virt. eigenvalues --    0.29879   0.31200   0.31732   0.32150   0.33636
 Alpha virt. eigenvalues --    0.34791   0.35877   0.37745   0.40067   0.41920
 Alpha virt. eigenvalues --    0.47649   0.47997   0.50224   0.55125   0.57518
 Alpha virt. eigenvalues --    0.59280   0.61078   0.62762   0.63559   0.67951
 Alpha virt. eigenvalues --    0.69388   0.70282   0.71302   0.73446   0.74062
 Alpha virt. eigenvalues --    0.75745   0.79045   0.92551   0.94523   1.00211
 Alpha virt. eigenvalues --    1.02769   1.06572   1.13662   1.14765   1.19178
 Alpha virt. eigenvalues --    1.21859   1.23410   1.29788   1.31809   1.34953
 Alpha virt. eigenvalues --    1.39854   1.42236   1.45603   1.46530   1.52688
 Alpha virt. eigenvalues --    1.55263   1.57478   1.60418   1.60482   1.61821
 Alpha virt. eigenvalues --    1.64272   1.66584   1.69052   1.70510   1.74017
 Alpha virt. eigenvalues --    1.77756   1.79945   1.82755   1.86700   1.91487
 Alpha virt. eigenvalues --    1.97731   2.01695   2.03651   2.06861   2.11883
 Alpha virt. eigenvalues --    2.14071   2.17494   2.19801   2.27230   2.33730
 Alpha virt. eigenvalues --    2.36995   2.45887   2.50642   2.51220   2.54709
 Alpha virt. eigenvalues --    2.58398   2.60048   2.60926   2.63286   2.65082
 Alpha virt. eigenvalues --    2.71159   2.75415   2.80154   2.86332   2.95062
 Alpha virt. eigenvalues --    2.96684   3.01617   3.13299   3.16319   3.18306
 Alpha virt. eigenvalues --    3.21960   3.26540   3.31955   3.35256   3.45115
 Alpha virt. eigenvalues --    3.73478   3.80754   3.86887   3.91467   3.94369
 Alpha virt. eigenvalues --    4.05043   4.08534   4.19697   4.35515   5.17299
 Alpha virt. eigenvalues --    5.19336   5.49086   5.50647   5.73381   5.74948
 Alpha virt. eigenvalues --   23.89310  23.92361  23.97782  50.02181  50.02812
          Condensed to atoms (all electrons):
               1          2          3          4          5          6
     1  C    5.685206   0.345226   0.437317  -0.207905  -0.012993  -0.069149
     2  H    0.345226   0.677809  -0.106116   0.015281   0.013419  -0.001941
     3  H    0.437317  -0.106116   0.669449  -0.110791  -0.012767   0.010668
     4  C   -0.207905   0.015281  -0.110791   5.880922   0.320746   0.509233
     5  H   -0.012993   0.013419  -0.012767   0.320746   0.648138  -0.073905
     6  H   -0.069149  -0.001941   0.010668   0.509233  -0.073905   0.501459
     7  C    0.008892  -0.043539   0.025063  -0.097048   0.026490  -0.078851
     8  H   -0.023195  -0.002545   0.002938   0.098464  -0.064330   0.026562
     9  H    0.012875   0.004238  -0.001651  -0.084495   0.025895  -0.021708
    10  O    0.228178  -0.044528  -0.072461  -0.055438   0.025198  -0.032525
    11  H    0.018316  -0.015160   0.002215  -0.023539  -0.004138   0.005090
    12  O    0.017991   0.002988  -0.001407  -0.061172  -0.034187   0.023161
    13  H    0.004863   0.002315  -0.001399  -0.010041   0.016066  -0.006121
               7          8          9         10         11         12
     1  C    0.008892  -0.023195   0.012875   0.228178   0.018316   0.017991
     2  H   -0.043539  -0.002545   0.004238  -0.044528  -0.015160   0.002988
     3  H    0.025063   0.002938  -0.001651  -0.072461   0.002215  -0.001407
     4  C   -0.097048   0.098464  -0.084495  -0.055438  -0.023539  -0.061172
     5  H    0.026490  -0.064330   0.025895   0.025198  -0.004138  -0.034187
     6  H   -0.078851   0.026562  -0.021708  -0.032525   0.005090   0.023161
     7  C    5.693636   0.215297   0.468991  -0.055201   0.011869   0.197364
     8  H    0.215297   0.733545  -0.096302  -0.004267   0.002273  -0.014897
     9  H    0.468991  -0.096302   0.566891   0.009891  -0.003362  -0.094090
    10  O   -0.055201  -0.004267   0.009891   8.029525   0.240483  -0.002332
    11  H    0.011869   0.002273  -0.003362   0.240483   0.507146  -0.000116
    12  O    0.197364  -0.014897  -0.094090  -0.002332  -0.000116   7.978128
    13  H   -0.026187  -0.023645   0.019262  -0.000478   0.000065   0.252124
              13
     1  C    0.004863
     2  H    0.002315
     3  H   -0.001399
     4  C   -0.010041
     5  H    0.016066
     6  H   -0.006121
     7  C   -0.026187
     8  H   -0.023645
     9  H    0.019262
    10  O   -0.000478
    11  H    0.000065
    12  O    0.252124
    13  H    0.525384
 Mulliken charges:
               1
     1  C   -0.445621
     2  H    0.152553
     3  H    0.158943
     4  C   -0.174217
     5  H    0.126366
     6  H    0.208027
     7  C   -0.346776
     8  H    0.150103
     9  H    0.193567
    10  O   -0.266044
    11  H    0.258858
    12  O   -0.263554
    13  H    0.247794
 Sum of Mulliken charges =   0.00000
 Mulliken charges with hydrogens summed into heavy atoms:
               1
     1  C   -0.134124
     4  C    0.160176
     7  C   -0.003106
    10  O   -0.007186
    12  O   -0.015761
 Electronic spatial extent (au):  <R**2>=            595.3515
 Charge=              0.0000 electrons
 Dipole moment (field-independent basis, Debye):
    X=             -1.5176    Y=              2.4997    Z=              1.5929  Tot=              3.3301
 Quadrupole moment (field-independent basis, Debye-Ang):
   XX=            -31.4000   YY=            -31.7577   ZZ=            -32.3544
   XY=              3.5820   XZ=             -3.4264   YZ=             -1.6240
 Traceless Quadrupole moment (field-independent basis, Debye-Ang):
   XX=              0.4374   YY=              0.0797   ZZ=             -0.5170
   XY=              3.5820   XZ=             -3.4264   YZ=             -1.6240
 Octapole moment (field-independent basis, Debye-Ang**2):
  XXX=            -29.9548  YYY=             -0.6453  ZZZ=             -0.3828  XYY=              2.4585
  XXY=             12.0220  XXZ=              7.2283  XZZ=              0.8176  YZZ=             -0.5110
  YYZ=             -0.1592  XYZ=             -0.2209
 Hexadecapole moment (field-independent basis, Debye-Ang**3):
 XXXX=           -495.4665 YYYY=            -86.7968 ZZZZ=            -82.7648 XXXY=             53.4382
 XXXZ=            -32.4818 YYYX=              3.5896 YYYZ=             -2.2491 ZZZX=             -2.0996
 ZZZY=              0.8465 XXYY=           -103.0775 XXZZ=           -110.1792 YYZZ=            -29.1232
 XXYZ=            -10.3409 YYXZ=             -1.3729 ZZXY=              2.9480
 N-N= 1.855183783883D+02 E-N=-1.002633672414D+03  KE= 2.684905081782D+02
 No NMR shielding tensors so no spin-rotation constants.
 Leave Link  601 at Mon Nov 10 19:46:41 2025, MaxMem=    33554432 cpu:         0.0
 (Enter /opt/programs/gaussian/g09/d_pgi133/l9999.exe)
 1\1\GINC-EXADE5\SP\RM062X\6-311++G(d,p)\C3H8O2\APINTO\10-Nov-2025\0\\#
 p M062X/6-311++G(d,p)\\SP\\0,1\C,0,1.404196,-0.158215,0.110421\H,0,1.3
 10534,-0.352709,1.192066\H,0,1.91419,-1.031173,-0.325768\C,0,0.014747,
 0.012,-0.520566\H,0,-0.251541,-0.896504,-1.078275\H,0,0.062772,0.83024
 9,-1.245146\C,0,-1.084351,0.289862,0.507922\H,0,-1.112606,-0.526919,1.
 249015\H,0,-0.85739,1.211516,1.054223\O,0,2.150437,1.030946,-0.136117\
 H,0,2.992821,0.957381,0.33056\O,0,-2.360428,0.492535,-0.082172\H,0,-2.
 595756,-0.317675,-0.553428\\Version=ES64L-G09RevD.01\State=1-A\HF=-269
 .526446\RMSD=4.367e-09\Dipole=0.6593187,-1.0914419,0.3008775\Quadrupol
 e=0.2432695,-0.4655972,0.2223277,1.8645571,3.1537767,1.2580153\PG=C01 
 [X(C3H8O2)]\\@


 A great many people think they are thinking when they
 are merely rearranging their prejudices.
                               -- William James
 Job cpu time:       0 days  0 hours  0 minutes 26.3 seconds.
 File lengths (MBytes):  RWF=     16 Int=      0 D2E=      0 Chk=      2 Scr=      1
 Normal termination of Gaussian 09 at Mon Nov 10 19:46:41 2025.
