 Entering Gaussian System, Link 0=g09
 Input=xbh.com
 Output=xbh.log
 Initial command:
 /opt/programs/gaussian/g09/d_pgi133/l1.exe "/scratch/users/apinto/lixo/Gau-1268915.inp" -scrdir="/scratch/users/apinto/lixo/"
 Entering Link 1 = /opt/programs/gaussian/g09/d_pgi133/l1.exe PID=   1268917.
  
 Copyright (c) 1988,1990,1992,1993,1995,1998,2003,2009,2013,
            Gaussian, Inc.  All Rights Reserved.
  
 This is part of the Gaussian(R) 09 program.  It is based on
 the Gaussian(R) 03 system (copyright 2003, Gaussian, Inc.),
 the Gaussian(R) 98 system (copyright 1998, Gaussian, Inc.),
 the Gaussian(R) 94 system (copyright 1995, Gaussian, Inc.),
 the Gaussian 92(TM) system (copyright 1992, Gaussian, Inc.),
 the Gaussian 90(TM) system (copyright 1990, Gaussian, Inc.),
 the Gaussian 88(TM) system (copyright 1988, Gaussian, Inc.),
 the Gaussian 86(TM) system (copyright 1986, Carnegie Mellon
 University), and the Gaussian 82(TM) system (copyright 1983,
 Carnegie Mellon University). Gaussian is a federally registered
 trademark of Gaussian, Inc.
  
 This software contains proprietary and confidential information,
 including trade secrets, belonging to Gaussian, Inc.
  
 This software is provided under written license and may be
 used, copied, transmitted, or stored only in accord with that
 written license.
  
 The following legend is applicable only to US Government
 contracts under FAR:
  
                    RESTRICTED RIGHTS LEGEND
  
 Use, reproduction and disclosure by the US Government is
 subject to restrictions as set forth in subparagraphs (a)
 and (c) of the Commercial Computer Software - Restricted
 Rights clause in FAR 52.227-19.
  
 Gaussian, Inc.
 340 Quinnipiac St., Bldg. 40, Wallingford CT 06492
  
  
 ---------------------------------------------------------------
 Warning -- This program may not be used in any manner that
 competes with the business of Gaussian, Inc. or will provide
 assistance to any competitor of Gaussian, Inc.  The licensee
 of this program is prohibited from giving any competitor of
 Gaussian, Inc. access to this program.  By using this program,
 the user acknowledges that Gaussian, Inc. is engaged in the
 business of creating and licensing software in the field of
 computational chemistry and represents and warrants to the
 licensee that it is not a competitor of Gaussian, Inc. and that
 it will not use this program in any manner prohibited above.
 ---------------------------------------------------------------
  

 Cite this work as:
 Gaussian 09, Revision D.01,
 M. J. Frisch, G. W. Trucks, H. B. Schlegel, G. E. Scuseria, 
 M. A. Robb, J. R. Cheeseman, G. Scalmani, V. Barone, B. Mennucci, 
 G. A. Petersson, H. Nakatsuji, M. Caricato, X. Li, H. P. Hratchian, 
 A. F. Izmaylov, J. Bloino, G. Zheng, J. L. Sonnenberg, M. Hada, 
 M. Ehara, K. Toyota, R. Fukuda, J. Hasegawa, M. Ishida, T. Nakajima, 
 Y. Honda, O. Kitao, H. Nakai, T. Vreven, J. A. Montgomery, Jr., 
 J. E. Peralta, F. Ogliaro, M. Bearpark, J. J. Heyd, E. Brothers, 
 K. N. Kudin, V. N. Staroverov, T. Keith, R. Kobayashi, J. Normand, 
 K. Raghavachari, A. Rendell, J. C. Burant, S. S. Iyengar, J. Tomasi, 
 M. Cossi, N. Rega, J. M. Millam, M. Klene, J. E. Knox, J. B. Cross, 
 V. Bakken, C. Adamo, J. Jaramillo, R. Gomperts, R. E. Stratmann, 
 O. Yazyev, A. J. Austin, R. Cammi, C. Pomelli, J. W. Ochterski, 
 R. L. Martin, K. Morokuma, V. G. Zakrzewski, G. A. Voth, 
 P. Salvador, J. J. Dannenberg, S. Dapprich, A. D. Daniels, 
 O. Farkas, J. B. Foresman, J. V. Ortiz, J. Cioslowski, 
 and D. J. Fox, Gaussian, Inc., Wallingford CT, 2013.
 
 ******************************************
 Gaussian 09:  ES64L-G09RevD.01 24-Apr-2013
                10-Nov-2025 
 ******************************************
 ----------------------
 #p M062X/6-311++G(d,p)
 ----------------------
 1/38=1/1;
 2/12=2,17=6,18=5,40=1/2;
 3/5=4,6=6,7=1111,11=2,16=1,25=1,30=1,74=-55/1,2,3;
 4//1;
 5/5=2,38=5/2;
 6/7=2,8=2,9=2,10=2,28=1/1;
 99/5=1,9=1/99;
 Leave Link    1 at Mon Nov 10 19:46:41 2025, MaxMem=           0 cpu:         0.0
 (Enter /opt/programs/gaussian/g09/d_pgi133/l101.exe)
 --
 SP
 --
 Symbolic Z-matrix:
 Charge =  0 Multiplicity = 1
 C                     1.40619  -0.17206   0.09391 
 H                     1.31946  -0.44198   1.15964 
 H                     1.94404  -0.99578  -0.40084 
 C                     0.0139   -0.00824  -0.52672 
 H                    -0.26354  -0.93562  -1.04753 
 H                     0.061     0.78196  -1.28206 
 C                    -1.07229   0.3117    0.50289 
 H                    -1.10052  -0.48266   1.26787 
 H                    -0.83108   1.24705   1.01875 
 O                     2.11154   1.05523  -0.07512 
 H                     2.94996   0.98672   0.39922 
 O                    -2.35246   0.50824  -0.08086 
 H                    -2.59856  -0.31326  -0.52642 
 
 NAtoms=     13 NQM=       13 NQMF=       0 NMMI=      0 NMMIF=      0
                NMic=       0 NMicF=      0.
                    Isotopes and Nuclear Properties:
 (Nuclear quadrupole moments (NQMom) in fm**2, nuclear magnetic moments (NMagM)
  in nuclear magnetons)

  Atom         1           2           3           4           5           6           7           8           9          10
 IAtWgt=          12           1           1          12           1           1          12           1           1          16
 AtmWgt=  12.0000000   1.0078250   1.0078250  12.0000000   1.0078250   1.0078250  12.0000000   1.0078250   1.0078250  15.9949146
 NucSpn=           0           1           1           0           1           1           0           1           1           0
 AtZEff=   0.0000000   0.0000000   0.0000000   0.0000000   0.0000000   0.0000000   0.0000000   0.0000000   0.0000000   0.0000000
 NQMom=    0.0000000   0.0000000   0.0000000   0.0000000   0.0000000   0.0000000   0.0000000   0.0000000   0.0000000   0.0000000
 NMagM=    0.0000000   2.7928460   2.7928460   0.0000000   2.7928460   2.7928460   0.0000000   2.7928460   2.7928460   0.0000000
 AtZNuc=   6.0000000   1.0000000   1.0000000   6.0000000   1.0000000   1.0000000   6.0000000   1.0000000   1.0000000   8.0000000

  Atom        11          12          13
 IAtWgt=           1          16           1
 AtmWgt=   1.0078250  15.9949146   1.0078250
 NucSpn=           1           0           1
 AtZEff=   0.0000000   0.0000000   0.0000000
 NQMom=    0.0000000   0.0000000   0.0000000
 NMagM=    2.7928460   0.0000000   2.7928460
 AtZNuc=   1.0000000   8.0000000   1.0000000
 Leave Link  101 at Mon Nov 10 19:46:41 2025, MaxMem=    33554432 cpu:         0.0
 (Enter /opt/programs/gaussian/g09/d_pgi133/l202.exe)
                          Input orientation:                          
 ---------------------------------------------------------------------
 Center     Atomic      Atomic             Coordinates (Angstroms)
 Number     Number       Type             X           Y           Z
 ---------------------------------------------------------------------
      1          6           0        1.406189   -0.172059    0.093910
      2          1           0        1.319461   -0.441980    1.159639
      3          1           0        1.944037   -0.995775   -0.400835
      4          6           0        0.013900   -0.008244   -0.526723
      5          1           0       -0.263537   -0.935619   -1.047526
      6          1           0        0.060997    0.781957   -1.282063
      7          6           0       -1.072293    0.311699    0.502885
      8          1           0       -1.100521   -0.482658    1.267869
      9          1           0       -0.831083    1.247053    1.018754
     10          8           0        2.111539    1.055230   -0.075115
     11          1           0        2.949959    0.986715    0.399222
     12          8           0       -2.352458    0.508236   -0.080863
     13          1           0       -2.598564   -0.313263   -0.526419
 ---------------------------------------------------------------------
                    Distance matrix (angstroms):
                    1          2          3          4          5
     1  C    0.000000
     2  H    1.102795   0.000000
     3  H    1.101164   1.769707   0.000000
     4  C    1.533131   2.176335   2.171749   0.000000
     5  H    2.161917   2.760641   2.301133   1.099196   0.000000
     6  H    2.147787   3.007268   2.735459   1.094155   1.763632
     7  C    2.558155   2.592266   3.409464   1.530448   2.147944
     8  H    2.785363   2.422743   3.509586   2.165078   2.503352
     9  H    2.806172   2.738160   3.840156   2.162930   3.058705
    10  O    1.425597   2.096102   2.083452   2.394789   3.248084
    11  H    1.954277   2.297374   2.362676   3.235392   4.014350
    12  O    3.823712   3.990582   4.563365   2.462761   2.717121
    13  H    4.054971   4.267350   4.595304   2.630210   2.472090
                    6          7          8          9         10
     6  H    0.000000
     7  C    2.165994   0.000000
     8  H    3.074171   1.103177   0.000000
     9  H    2.511151   1.095075   1.768207   0.000000
    10  O    2.395021   3.320197   3.806052   3.145214   0.000000
    11  H    3.348843   4.079817   4.395451   3.840296   0.965732
    12  O    2.709718   1.420638   2.090047   2.017322   4.497389
    13  H    2.973848   1.944106   2.343565   2.818889   4.925598
                   11         12         13
    11  H    0.000000
    12  O    5.345564   0.000000
    13  H    5.773462   0.966410   0.000000
 Stoichiometry    C3H8O2
 Framework group  C1[X(C3H8O2)]
 Deg. of freedom    33
 Full point group                 C1      NOp   1
 Largest Abelian subgroup         C1      NOp   1
 Largest concise Abelian subgroup C1      NOp   1
                         Standard orientation:                         
 ---------------------------------------------------------------------
 Center     Atomic      Atomic             Coordinates (Angstroms)
 Number     Number       Type             X           Y           Z
 ---------------------------------------------------------------------
      1          6           0       -1.341151    0.467461    0.311416
      2          1           0       -1.232629    0.308837    1.397334
      3          1           0       -1.842511    1.438978    0.179678
      4          6           0        0.036380    0.493531   -0.361057
      5          1           0        0.354127    1.536735   -0.498875
      6          1           0       -0.055212    0.051838   -1.357898
      7          6           0        1.114266   -0.238250    0.442019
      8          1           0        1.187292    0.204412    1.449847
      9          1           0        0.832274   -1.288466    0.571308
     10          8           0       -2.106537   -0.573273   -0.291396
     11          1           0       -2.936698   -0.655002    0.195215
     12          8           0        2.378527   -0.251745   -0.205803
     13          1           0        2.660471    0.666353   -0.313289
 ---------------------------------------------------------------------
 Rotational constants (GHZ):     15.1537075      2.1540273      2.0995712
 Leave Link  202 at Mon Nov 10 19:46:41 2025, MaxMem=    33554432 cpu:         0.0
 (Enter /opt/programs/gaussian/g09/d_pgi133/l301.exe)
 Standard basis: 6-311++G(d,p) (5D, 7F)
 Ernie: Thresh=  0.10000D-02 Tol=  0.10000D-05 Strict=F.
 There are   171 symmetry adapted cartesian basis functions of A   symmetry.
 There are   166 symmetry adapted basis functions of A   symmetry.
   166 basis functions,   252 primitive gaussians,   171 cartesian basis functions
    21 alpha electrons       21 beta electrons
       nuclear repulsion energy       185.7981695687 Hartrees.
 IExCor= 4336 DFT=T Ex+Corr=M062X ExCW=0 ScaHFX=  0.540000
 ScaDFX=  1.000000  1.000000  1.000000  1.000000 ScalE2=  1.000000  1.000000
 IRadAn=      0 IRanWt=     -1 IRanGd=            0 ICorTp=0 IEmpDi=  4
 NAtoms=   13 NActive=   13 NUniq=   13 SFac= 1.00D+00 NAtFMM=   60 NAOKFM=F Big=F
 Integral buffers will be    131072 words long.
 Raffenetti 2 integral format.
 Two-electron integral symmetry is turned on.
 Leave Link  301 at Mon Nov 10 19:46:41 2025, MaxMem=    33554432 cpu:         0.0
 (Enter /opt/programs/gaussian/g09/d_pgi133/l302.exe)
 NPDir=0 NMtPBC=     1 NCelOv=     1 NCel=       1 NClECP=     1 NCelD=      1
         NCelK=      1 NCelE2=     1 NClLst=     1 CellRange=     0.0.
 One-electron integrals computed using PRISM.
 NBasis=   166 RedAO= T EigKep=  3.85D-05  NBF=   166
 NBsUse=   166 1.00D-06 EigRej= -1.00D+00 NBFU=   166
 Precomputing XC quadrature grid using
 IXCGrd= 4 IRadAn=           0 IRanWt=          -1 IRanGd=           0 AccXCQ= 0.00D+00.
 Generated NRdTot=       0 NPtTot=           0 NUsed=           0 NTot=          32
 NSgBfM=   171   171   171   171   171 MxSgAt=    13 MxSgA2=    13.
 Leave Link  302 at Mon Nov 10 19:46:41 2025, MaxMem=    33554432 cpu:         0.1
 (Enter /opt/programs/gaussian/g09/d_pgi133/l303.exe)
 DipDrv:  MaxL=1.
 Leave Link  303 at Mon Nov 10 19:46:41 2025, MaxMem=    33554432 cpu:         0.0
 (Enter /opt/programs/gaussian/g09/d_pgi133/l401.exe)
 ExpMin= 3.60D-02 ExpMax= 8.59D+03 ExpMxC= 1.30D+03 IAcc=3 IRadAn=         5 AccDes= 0.00D+00
 Harris functional with IExCor= 1009 and IRadAn=       5 diagonalized for initial guess.
 HarFok:  IExCor= 1009 AccDes= 0.00D+00 IRadAn=         5 IDoV= 1 UseB2=F ITyADJ=14
 ICtDFT=  3500011 ScaDFX=  1.000000  1.000000  1.000000  1.000000
 FoFCou: FMM=F IPFlag=           0 FMFlag=      100000 FMFlg1=           0
         NFxFlg=           0 DoJE=T BraDBF=F KetDBF=T FulRan=T
         wScrn=  0.000000 ICntrl=     500 IOpCl=  0 I1Cent=   200000004 NGrid=           0
         NMat0=    1 NMatS0=      1 NMatT0=    0 NMatD0=    1 NMtDS0=    0 NMtDT0=    0
 Petite list used in FoFCou.
 Harris En= -269.440709846206    
 JPrj=0 DoOrth=F DoCkMO=F.
 Leave Link  401 at Mon Nov 10 19:46:42 2025, MaxMem=    33554432 cpu:         1.5
 (Enter /opt/programs/gaussian/g09/d_pgi133/l502.exe)
 Closed shell SCF:
 Using DIIS extrapolation, IDIIS=  1040.
 Integral symmetry usage will be decided dynamically.
 IVT=      108587 IEndB=      108587 NGot=    33554432 MDV=    33491898
 LenX=    33491898 LenY=    33462216
 Requested convergence on RMS density matrix=1.00D-08 within 128 cycles.
 Requested convergence on MAX density matrix=1.00D-06.
 Requested convergence on             energy=1.00D-06.
 No special actions if energy rises.
 Fock matrices will be formed incrementally for  20 cycles.

 Cycle   1  Pass 1  IDiag  1:
 FoFJK:  IHMeth= 1 ICntrl=       0 DoSepK=F KAlg= 0 I1Cent=   0 FoldK=F
 IRaf= 980000000 NMat=   1 IRICut=       1 DoRegI=T DoRafI=F ISym2E= 0.
 FoFCou: FMM=F IPFlag=           0 FMFlag=      100000 FMFlg1=           0
         NFxFlg=           0 DoJE=F BraDBF=F KetDBF=F FulRan=T
         wScrn=  0.000000 ICntrl=       0 IOpCl=  0 I1Cent=           0 NGrid=           0
         NMat0=    1 NMatS0=      1 NMatT0=    0 NMatD0=    1 NMtDS0=    0 NMtDT0=    0
 Symmetry not used in FoFCou.
 E= -269.357775612653    
 DIIS: error= 3.15D-02 at cycle   1 NSaved=   1.
 NSaved= 1 IEnMin= 1 EnMin= -269.357775612653     IErMin= 1 ErrMin= 3.15D-02
 ErrMax= 3.15D-02  0.00D+00 EMaxC= 1.00D-01 BMatC= 2.36D-01 BMatP= 2.36D-01
 IDIUse=3 WtCom= 6.85D-01 WtEn= 3.15D-01
 Coeff-Com:  0.100D+01
 Coeff-En:   0.100D+01
 Coeff:      0.100D+01
 Gap=     0.288 Goal=   None    Shift=    0.000
 GapD=    0.288 DampG=1.000 DampE=0.500 DampFc=0.5000 IDamp=-1.
 Damping current iteration by 5.00D-01
 RMSDP=7.90D-03 MaxDP=2.62D-01              OVMax= 1.36D-01

 Cycle   2  Pass 1  IDiag  1:
 RMSU=  3.95D-03    CP:  1.01D+00
 E= -269.438941611452     Delta-E=       -0.081165998799 Rises=F Damp=T
 DIIS: error= 6.70D-03 at cycle   2 NSaved=   2.
 NSaved= 2 IEnMin= 2 EnMin= -269.438941611452     IErMin= 2 ErrMin= 6.70D-03
 ErrMax= 6.70D-03  0.00D+00 EMaxC= 1.00D-01 BMatC= 1.53D-02 BMatP= 2.36D-01
 IDIUse=3 WtCom= 9.33D-01 WtEn= 6.70D-02
 Coeff-Com: -0.322D-01 0.103D+01
 Coeff-En:   0.000D+00 0.100D+01
 Coeff:     -0.301D-01 0.103D+01
 Gap=     0.347 Goal=   None    Shift=    0.000
 RMSDP=2.57D-03 MaxDP=1.45D-01 DE=-8.12D-02 OVMax= 7.63D-02

 Cycle   3  Pass 1  IDiag  1:
 RMSU=  2.25D-03    CP:  9.68D-01  7.21D-01
 E= -269.524289194229     Delta-E=       -0.085347582777 Rises=F Damp=F
 DIIS: error= 5.01D-03 at cycle   3 NSaved=   3.
 NSaved= 3 IEnMin= 3 EnMin= -269.524289194229     IErMin= 3 ErrMin= 5.01D-03
 ErrMax= 5.01D-03  0.00D+00 EMaxC= 1.00D-01 BMatC= 4.23D-03 BMatP= 1.53D-02
 IDIUse=3 WtCom= 9.50D-01 WtEn= 5.01D-02
 Coeff-Com: -0.766D-01 0.321D+00 0.756D+00
 Coeff-En:   0.000D+00 0.000D+00 0.100D+01
 Coeff:     -0.727D-01 0.305D+00 0.768D+00
 Gap=     0.341 Goal=   None    Shift=    0.000
 RMSDP=4.84D-04 MaxDP=2.14D-02 DE=-8.53D-02 OVMax= 1.13D-02

 Cycle   4  Pass 1  IDiag  1:
 RMSU=  3.66D-04    CP:  9.71D-01  7.99D-01  9.82D-01
 E= -269.526510160121     Delta-E=       -0.002220965892 Rises=F Damp=F
 DIIS: error= 1.90D-03 at cycle   4 NSaved=   4.
 NSaved= 4 IEnMin= 4 EnMin= -269.526510160121     IErMin= 4 ErrMin= 1.90D-03
 ErrMax= 1.90D-03  0.00D+00 EMaxC= 1.00D-01 BMatC= 8.25D-04 BMatP= 4.23D-03
 IDIUse=3 WtCom= 9.81D-01 WtEn= 1.90D-02
 Coeff-Com: -0.316D-01 0.839D-01 0.375D+00 0.573D+00
 Coeff-En:   0.000D+00 0.000D+00 0.126D+00 0.874D+00
 Coeff:     -0.310D-01 0.823D-01 0.370D+00 0.578D+00
 Gap=     0.338 Goal=   None    Shift=    0.000
 RMSDP=1.89D-04 MaxDP=7.99D-03 DE=-2.22D-03 OVMax= 4.85D-03

 Cycle   5  Pass 1  IDiag  1:
 RMSU=  1.11D-04    CP:  9.68D-01  7.79D-01  9.89D-01  6.72D-01
 E= -269.527182146061     Delta-E=       -0.000671985940 Rises=F Damp=F
 DIIS: error= 1.55D-04 at cycle   5 NSaved=   5.
 NSaved= 5 IEnMin= 5 EnMin= -269.527182146061     IErMin= 5 ErrMin= 1.55D-04
 ErrMax= 1.55D-04  0.00D+00 EMaxC= 1.00D-01 BMatC= 8.65D-06 BMatP= 8.25D-04
 IDIUse=3 WtCom= 9.98D-01 WtEn= 1.55D-03
 Coeff-Com: -0.361D-02 0.497D-02 0.500D-01 0.140D+00 0.809D+00
 Coeff-En:   0.000D+00 0.000D+00 0.000D+00 0.000D+00 0.100D+01
 Coeff:     -0.360D-02 0.496D-02 0.500D-01 0.139D+00 0.809D+00
 Gap=     0.338 Goal=   None    Shift=    0.000
 RMSDP=4.12D-05 MaxDP=1.09D-03 DE=-6.72D-04 OVMax= 5.98D-04

 Cycle   6  Pass 1  IDiag  1:
 RMSU=  2.60D-05    CP:  9.68D-01  7.72D-01  9.95D-01  7.02D-01  9.02D-01
 E= -269.527189426335     Delta-E=       -0.000007280274 Rises=F Damp=F
 DIIS: error= 2.22D-05 at cycle   6 NSaved=   6.
 NSaved= 6 IEnMin= 6 EnMin= -269.527189426335     IErMin= 6 ErrMin= 2.22D-05
 ErrMax= 2.22D-05  0.00D+00 EMaxC= 1.00D-01 BMatC= 1.66D-07 BMatP= 8.65D-06
 IDIUse=1 WtCom= 1.00D+00 WtEn= 0.00D+00
 Coeff-Com:  0.679D-03-0.198D-02-0.615D-02-0.261D-02 0.658D-01 0.944D+00
 Coeff:      0.679D-03-0.198D-02-0.615D-02-0.261D-02 0.658D-01 0.944D+00
 Gap=     0.338 Goal=   None    Shift=    0.000
 RMSDP=9.75D-06 MaxDP=3.72D-04 DE=-7.28D-06 OVMax= 1.52D-04

 Cycle   7  Pass 1  IDiag  1:
 RMSU=  5.82D-06    CP:  9.68D-01  7.71D-01  9.95D-01  7.08D-01  9.34D-01
                    CP:  1.08D+00
 E= -269.527189598201     Delta-E=       -0.000000171866 Rises=F Damp=F
 DIIS: error= 1.20D-05 at cycle   7 NSaved=   7.
 NSaved= 7 IEnMin= 7 EnMin= -269.527189598201     IErMin= 7 ErrMin= 1.20D-05
 ErrMax= 1.20D-05  0.00D+00 EMaxC= 1.00D-01 BMatC= 5.35D-08 BMatP= 1.66D-07
 IDIUse=1 WtCom= 1.00D+00 WtEn= 0.00D+00
 Coeff-Com:  0.565D-03-0.121D-02-0.637D-02-0.114D-01-0.335D-01 0.385D+00
 Coeff-Com:  0.667D+00
 Coeff:      0.565D-03-0.121D-02-0.637D-02-0.114D-01-0.335D-01 0.385D+00
 Coeff:      0.667D+00
 Gap=     0.338 Goal=   None    Shift=    0.000
 RMSDP=2.88D-06 MaxDP=9.80D-05 DE=-1.72D-07 OVMax= 4.68D-05

 Cycle   8  Pass 1  IDiag  1:
 RMSU=  1.11D-06    CP:  9.68D-01  7.70D-01  9.95D-01  7.08D-01  9.35D-01
                    CP:  1.14D+00  8.74D-01
 E= -269.527189642309     Delta-E=       -0.000000044107 Rises=F Damp=F
 DIIS: error= 2.97D-06 at cycle   8 NSaved=   8.
 NSaved= 8 IEnMin= 8 EnMin= -269.527189642309     IErMin= 8 ErrMin= 2.97D-06
 ErrMax= 2.97D-06  0.00D+00 EMaxC= 1.00D-01 BMatC= 4.19D-09 BMatP= 5.35D-08
 IDIUse=1 WtCom= 1.00D+00 WtEn= 0.00D+00
 Coeff-Com:  0.163D-03-0.318D-03-0.200D-02-0.417D-02-0.181D-01 0.813D-01
 Coeff-Com:  0.265D+00 0.678D+00
 Coeff:      0.163D-03-0.318D-03-0.200D-02-0.417D-02-0.181D-01 0.813D-01
 Coeff:      0.265D+00 0.678D+00
 Gap=     0.338 Goal=   None    Shift=    0.000
 RMSDP=7.68D-07 MaxDP=2.75D-05 DE=-4.41D-08 OVMax= 1.46D-05

 Cycle   9  Pass 1  IDiag  1:
 RMSU=  4.18D-07    CP:  9.68D-01  7.70D-01  9.95D-01  7.08D-01  9.35D-01
                    CP:  1.14D+00  9.41D-01  8.73D-01
 E= -269.527189645365     Delta-E=       -0.000000003057 Rises=F Damp=F
 DIIS: error= 1.16D-06 at cycle   9 NSaved=   9.
 NSaved= 9 IEnMin= 9 EnMin= -269.527189645365     IErMin= 9 ErrMin= 1.16D-06
 ErrMax= 1.16D-06  0.00D+00 EMaxC= 1.00D-01 BMatC= 3.07D-10 BMatP= 4.19D-09
 IDIUse=1 WtCom= 1.00D+00 WtEn= 0.00D+00
 Coeff-Com:  0.576D-05-0.598D-05-0.174D-03-0.492D-03-0.360D-02-0.380D-02
 Coeff-Com:  0.340D-01 0.234D+00 0.740D+00
 Coeff:      0.576D-05-0.598D-05-0.174D-03-0.492D-03-0.360D-02-0.380D-02
 Coeff:      0.340D-01 0.234D+00 0.740D+00
 Gap=     0.338 Goal=   None    Shift=    0.000
 RMSDP=1.69D-07 MaxDP=3.27D-06 DE=-3.06D-09 OVMax= 4.93D-06

 Cycle  10  Pass 1  IDiag  1:
 RMSU=  1.12D-07    CP:  9.68D-01  7.70D-01  9.95D-01  7.08D-01  9.35D-01
                    CP:  1.14D+00  9.51D-01  9.34D-01  9.90D-01
 E= -269.527189645616     Delta-E=       -0.000000000251 Rises=F Damp=F
 DIIS: error= 3.13D-07 at cycle  10 NSaved=  10.
 NSaved=10 IEnMin=10 EnMin= -269.527189645616     IErMin=10 ErrMin= 3.13D-07
 ErrMax= 3.13D-07  0.00D+00 EMaxC= 1.00D-01 BMatC= 3.37D-11 BMatP= 3.07D-10
 IDIUse=1 WtCom= 1.00D+00 WtEn= 0.00D+00
 Coeff-Com: -0.141D-04 0.294D-04 0.133D-03 0.235D-03 0.531D-03-0.918D-02
 Coeff-Com: -0.171D-01 0.556D-02 0.274D+00 0.746D+00
 Coeff:     -0.141D-04 0.294D-04 0.133D-03 0.235D-03 0.531D-03-0.918D-02
 Coeff:     -0.171D-01 0.556D-02 0.274D+00 0.746D+00
 Gap=     0.338 Goal=   None    Shift=    0.000
 RMSDP=5.88D-08 MaxDP=1.87D-06 DE=-2.51D-10 OVMax= 1.76D-06

 Cycle  11  Pass 1  IDiag  1:
 RMSU=  3.44D-08    CP:  9.68D-01  7.70D-01  9.95D-01  7.08D-01  9.35D-01
                    CP:  1.14D+00  9.57D-01  9.54D-01  1.03D+00  1.00D+00
 E= -269.527189645652     Delta-E=       -0.000000000036 Rises=F Damp=F
 DIIS: error= 5.62D-08 at cycle  11 NSaved=  11.
 NSaved=11 IEnMin=11 EnMin= -269.527189645652     IErMin=11 ErrMin= 5.62D-08
 ErrMax= 5.62D-08  0.00D+00 EMaxC= 1.00D-01 BMatC= 7.43D-13 BMatP= 3.37D-11
 IDIUse=1 WtCom= 1.00D+00 WtEn= 0.00D+00
 Coeff-Com: -0.172D-05 0.375D-05 0.273D-04 0.505D-04 0.237D-03-0.730D-03
 Coeff-Com: -0.410D-02-0.135D-01-0.616D-02 0.845D-01 0.940D+00
 Coeff:     -0.172D-05 0.375D-05 0.273D-04 0.505D-04 0.237D-03-0.730D-03
 Coeff:     -0.410D-02-0.135D-01-0.616D-02 0.845D-01 0.940D+00
 Gap=     0.338 Goal=   None    Shift=    0.000
 RMSDP=2.24D-08 MaxDP=9.26D-07 DE=-3.59D-11 OVMax= 6.22D-07

 Cycle  12  Pass 1  IDiag  1:
 RMSU=  1.15D-08    CP:  9.68D-01  7.70D-01  9.95D-01  7.08D-01  9.35D-01
                    CP:  1.14D+00  9.58D-01  9.56D-01  1.05D+00  1.08D+00
                    CP:  1.07D+00
 E= -269.527189645648     Delta-E=        0.000000000005 Rises=F Damp=F
 DIIS: error= 1.37D-08 at cycle  12 NSaved=  12.
 NSaved=12 IEnMin=11 EnMin= -269.527189645652     IErMin=12 ErrMin= 1.37D-08
 ErrMax= 1.37D-08  0.00D+00 EMaxC= 1.00D-01 BMatC= 5.57D-14 BMatP= 7.43D-13
 IDIUse=1 WtCom= 1.00D+00 WtEn= 0.00D+00
 Coeff-Com:  0.815D-06-0.157D-05-0.534D-05-0.108D-04-0.180D-04 0.517D-03
 Coeff-Com:  0.593D-03-0.235D-02-0.185D-01-0.361D-01 0.147D+00 0.909D+00
 Coeff:      0.815D-06-0.157D-05-0.534D-05-0.108D-04-0.180D-04 0.517D-03
 Coeff:      0.593D-03-0.235D-02-0.185D-01-0.361D-01 0.147D+00 0.909D+00
 Gap=     0.338 Goal=   None    Shift=    0.000
 RMSDP=4.52D-09 MaxDP=1.36D-07 DE= 4.77D-12 OVMax= 1.83D-07

 SCF Done:  E(RM062X) =  -269.527189646     A.U. after   12 cycles
            NFock= 12  Conv=0.45D-08     -V/T= 2.0039
 KE= 2.684909995527D+02 PE=-1.003199882617D+03 EE= 2.793835238500D+02
 Leave Link  502 at Mon Nov 10 19:47:07 2025, MaxMem=    33554432 cpu:        24.3
 (Enter /opt/programs/gaussian/g09/d_pgi133/l601.exe)
 Copying SCF densities to generalized density rwf, IOpCl= 0 IROHF=0.

 **********************************************************************

            Population analysis using the SCF density.

 **********************************************************************

 Orbital symmetries:
       Occupied  (A) (A) (A) (A) (A) (A) (A) (A) (A) (A) (A) (A)
                 (A) (A) (A) (A) (A) (A) (A) (A) (A)
       Virtual   (A) (A) (A) (A) (A) (A) (A) (A) (A) (A) (A) (A)
                 (A) (A) (A) (A) (A) (A) (A) (A) (A) (A) (A) (A)
                 (A) (A) (A) (A) (A) (A) (A) (A) (A) (A) (A) (A)
                 (A) (A) (A) (A) (A) (A) (A) (A) (A) (A) (A) (A)
                 (A) (A) (A) (A) (A) (A) (A) (A) (A) (A) (A) (A)
                 (A) (A) (A) (A) (A) (A) (A) (A) (A) (A) (A) (A)
                 (A) (A) (A) (A) (A) (A) (A) (A) (A) (A) (A) (A)
                 (A) (A) (A) (A) (A) (A) (A) (A) (A) (A) (A) (A)
                 (A) (A) (A) (A) (A) (A) (A) (A) (A) (A) (A) (A)
                 (A) (A) (A) (A) (A) (A) (A) (A) (A) (A) (A) (A)
                 (A) (A) (A) (A) (A) (A) (A) (A) (A) (A) (A) (A)
                 (A) (A) (A) (A) (A) (A) (A) (A) (A) (A) (A) (A)
                 (A)
 The electronic state is 1-A.
 Alpha  occ. eigenvalues --  -19.62858 -19.62275 -10.59450 -10.58495 -10.53823
 Alpha  occ. eigenvalues --   -1.14992  -1.14430  -0.87704  -0.76332  -0.68703
 Alpha  occ. eigenvalues --   -0.61048  -0.58105  -0.54197  -0.51240  -0.49575
 Alpha  occ. eigenvalues --   -0.45859  -0.44181  -0.41199  -0.39453  -0.35793
 Alpha  occ. eigenvalues --   -0.34625
 Alpha virt. eigenvalues --   -0.00803   0.00150   0.01611   0.01978   0.03646
 Alpha virt. eigenvalues --    0.04792   0.05172   0.05561   0.07195   0.09653
 Alpha virt. eigenvalues --    0.09923   0.11288   0.11717   0.12716   0.13368
 Alpha virt. eigenvalues --    0.13535   0.13909   0.15350   0.16400   0.16831
 Alpha virt. eigenvalues --    0.19379   0.20810   0.21154   0.22197   0.22816
 Alpha virt. eigenvalues --    0.24159   0.25803   0.26356   0.27321   0.28901
 Alpha virt. eigenvalues --    0.29981   0.31169   0.31737   0.32025   0.33701
 Alpha virt. eigenvalues --    0.34560   0.35727   0.37776   0.40146   0.41957
 Alpha virt. eigenvalues --    0.47583   0.48234   0.50430   0.54657   0.57554
 Alpha virt. eigenvalues --    0.59258   0.60964   0.63087   0.64001   0.67969
 Alpha virt. eigenvalues --    0.69397   0.70404   0.71697   0.73824   0.74504
 Alpha virt. eigenvalues --    0.75638   0.78975   0.92618   0.94751   1.01259
 Alpha virt. eigenvalues --    1.02630   1.06124   1.13527   1.14961   1.19025
 Alpha virt. eigenvalues --    1.22143   1.23218   1.29398   1.32158   1.34905
 Alpha virt. eigenvalues --    1.40096   1.41498   1.45657   1.47045   1.52871
 Alpha virt. eigenvalues --    1.55494   1.57848   1.60116   1.60394   1.62124
 Alpha virt. eigenvalues --    1.64087   1.66436   1.69356   1.70860   1.74688
 Alpha virt. eigenvalues --    1.77308   1.80158   1.82504   1.86118   1.91542
 Alpha virt. eigenvalues --    1.97520   2.01436   2.03732   2.07294   2.11873
 Alpha virt. eigenvalues --    2.14232   2.18171   2.20238   2.27446   2.34182
 Alpha virt. eigenvalues --    2.36592   2.46583   2.50315   2.51345   2.54499
 Alpha virt. eigenvalues --    2.58023   2.60524   2.61618   2.63266   2.64654
 Alpha virt. eigenvalues --    2.70994   2.75521   2.81117   2.86230   2.93329
 Alpha virt. eigenvalues --    2.96513   3.01652   3.13543   3.16570   3.18172
 Alpha virt. eigenvalues --    3.22233   3.26540   3.32273   3.35461   3.44804
 Alpha virt. eigenvalues --    3.74174   3.80870   3.87569   3.91602   3.94456
 Alpha virt. eigenvalues --    4.04877   4.07869   4.19394   4.35353   5.17530
 Alpha virt. eigenvalues --    5.19259   5.49301   5.50634   5.73361   5.74958
 Alpha virt. eigenvalues --   23.89402  23.92548  23.97868  50.02350  50.02881
          Condensed to atoms (all electrons):
               1          2          3          4          5          6
     1  C    5.729554   0.324700   0.452298  -0.255318   0.000493  -0.072682
     2  H    0.324700   0.686217  -0.106871   0.040205   0.007551  -0.000342
     3  H    0.452298  -0.106871   0.666550  -0.129140  -0.007631   0.009293
     4  C   -0.255318   0.040205  -0.129140   5.979769   0.297421   0.513651
     5  H    0.000493   0.007551  -0.007631   0.297421   0.649930  -0.074235
     6  H   -0.072682  -0.000342   0.009293   0.513651  -0.074235   0.503418
     7  C    0.013043  -0.047086   0.024116  -0.141572   0.037422  -0.082105
     8  H   -0.030253   0.000194   0.004000   0.112775  -0.065689   0.026808
     9  H    0.018628   0.002636  -0.001273  -0.092088   0.026826  -0.021850
    10  O    0.232048  -0.045804  -0.071578  -0.057058   0.026191  -0.033840
    11  H    0.018533  -0.016658   0.002942  -0.023688  -0.003991   0.004850
    12  O    0.017032   0.002584  -0.000937  -0.056973  -0.034760   0.023770
    13  H    0.004642   0.002545  -0.001643  -0.009636   0.016359  -0.006553
               7          8          9         10         11         12
     1  C    0.013043  -0.030253   0.018628   0.232048   0.018533   0.017032
     2  H   -0.047086   0.000194   0.002636  -0.045804  -0.016658   0.002584
     3  H    0.024116   0.004000  -0.001273  -0.071578   0.002942  -0.000937
     4  C   -0.141572   0.112775  -0.092088  -0.057058  -0.023688  -0.056973
     5  H    0.037422  -0.065689   0.026826   0.026191  -0.003991  -0.034760
     6  H   -0.082105   0.026808  -0.021850  -0.033840   0.004850   0.023770
     7  C    5.730316   0.205612   0.469676  -0.060464   0.013149   0.195369
     8  H    0.205612   0.735964  -0.096791  -0.005857   0.002194  -0.013246
     9  H    0.469676  -0.096791   0.568555   0.014604  -0.003552  -0.095544
    10  O   -0.060464  -0.005857   0.014604   8.030890   0.237330  -0.002579
    11  H    0.013149   0.002194  -0.003552   0.237330   0.509295  -0.000150
    12  O    0.195369  -0.013246  -0.095544  -0.002579  -0.000150   7.978773
    13  H   -0.025699  -0.024312   0.019536  -0.000551   0.000076   0.250225
              13
     1  C    0.004642
     2  H    0.002545
     3  H   -0.001643
     4  C   -0.009636
     5  H    0.016359
     6  H   -0.006553
     7  C   -0.025699
     8  H   -0.024312
     9  H    0.019536
    10  O   -0.000551
    11  H    0.000076
    12  O    0.250225
    13  H    0.528107
 Mulliken charges:
               1
     1  C   -0.452719
     2  H    0.150128
     3  H    0.159874
     4  C   -0.178349
     5  H    0.124113
     6  H    0.209816
     7  C   -0.331779
     8  H    0.148601
     9  H    0.190637
    10  O   -0.263333
    11  H    0.259670
    12  O   -0.263564
    13  H    0.246905
 Sum of Mulliken charges =   0.00000
 Mulliken charges with hydrogens summed into heavy atoms:
               1
     1  C   -0.142717
     4  C    0.155580
     7  C    0.007460
    10  O   -0.003664
    12  O   -0.016659
 Electronic spatial extent (au):  <R**2>=            590.1423
 Charge=              0.0000 electrons
 Dipole moment (field-independent basis, Debye):
    X=             -1.5600    Y=              2.3986    Z=              1.7886  Tot=              3.3744
 Quadrupole moment (field-independent basis, Debye-Ang):
   XX=            -31.1913   YY=            -31.5396   ZZ=            -32.6096
   XY=              3.8816   XZ=             -2.8577   YZ=             -1.5083
 Traceless Quadrupole moment (field-independent basis, Debye-Ang):
   XX=              0.5889   YY=              0.2406   ZZ=             -0.8295
   XY=              3.8816   XZ=             -2.8577   YZ=             -1.5083
 Octapole moment (field-independent basis, Debye-Ang**2):
  XXX=            -29.1126  YYY=             -0.8851  ZZZ=             -0.3746  XYY=              2.3394
  XXY=             11.1293  XXZ=              8.3026  XZZ=              0.5193  YZZ=             -0.5147
  YYZ=             -0.0544  XYZ=              0.3106
 Hexadecapole moment (field-independent basis, Debye-Ang**3):
 XXXX=           -487.5517 YYYY=            -90.4249 ZZZZ=            -80.2733 XXXY=             57.1532
 XXXZ=            -25.8388 YYYX=              4.4802 YYYZ=             -1.6151 ZZZX=             -1.2321
 ZZZY=              0.8500 XXYY=           -100.3269 XXZZ=           -110.2750 YYZZ=            -30.2789
 XXYZ=             -9.2659 YYXZ=             -1.4398 ZZXY=              2.6371
 N-N= 1.857981695687D+02 E-N=-1.003199883429D+03  KE= 2.684909995527D+02
 No NMR shielding tensors so no spin-rotation constants.
 Leave Link  601 at Mon Nov 10 19:47:07 2025, MaxMem=    33554432 cpu:         0.0
 (Enter /opt/programs/gaussian/g09/d_pgi133/l9999.exe)
 1\1\GINC-EXADE5\SP\RM062X\6-311++G(d,p)\C3H8O2\APINTO\10-Nov-2025\0\\#
 p M062X/6-311++G(d,p)\\SP\\0,1\C,0,1.406189,-0.172059,0.09391\H,0,1.31
 9461,-0.44198,1.159639\H,0,1.944037,-0.995775,-0.400835\C,0,0.0139,-0.
 008244,-0.526723\H,0,-0.263537,-0.935619,-1.047526\H,0,0.060997,0.7819
 57,-1.282063\C,0,-1.072293,0.311699,0.502885\H,0,-1.100521,-0.482658,1
 .267869\H,0,-0.831083,1.247053,1.018754\O,0,2.111539,1.05523,-0.075115
 \H,0,2.949959,0.986715,0.399222\O,0,-2.352458,0.508236,-0.080863\H,0,-
 2.598564,-0.313263,-0.526419\\Version=ES64L-G09RevD.01\State=1-A\HF=-2
 69.5271896\RMSD=4.522e-09\Dipole=0.6707061,-1.1089554,0.2877828\Quadru
 pole=0.3042831,-0.5391108,0.2348277,1.922255,3.0041836,1.209246\PG=C01
  [X(C3H8O2)]\\@


 IF YOU WANT TO LEARN FROM THE THEORETICAL PHYSICISTS ABOUT THE
 METHODS WHICH THEY USE, I ADVISE YOU TO FOLLOW THIS PRINCIPLE VERY STRICTLY:
 DON'T LISTEN TO THEIR WORDS; PAY ATTENTION, INSTEAD, TO THEIR ACTIONS.
 -- A.EINSTEIN, 1934
 Job cpu time:       0 days  0 hours  0 minutes 26.0 seconds.
 File lengths (MBytes):  RWF=     16 Int=      0 D2E=      0 Chk=      2 Scr=      1
 Normal termination of Gaussian 09 at Mon Nov 10 19:47:07 2025.
