 Entering Gaussian System, Link 0=g09
 Input=xbk.com
 Output=xbk.log
 Initial command:
 /opt/programs/gaussian/g09/d_pgi133/l1.exe "/scratch/users/apinto/lixo/Gau-1269556.inp" -scrdir="/scratch/users/apinto/lixo/"
 Entering Link 1 = /opt/programs/gaussian/g09/d_pgi133/l1.exe PID=   1269558.
  
 Copyright (c) 1988,1990,1992,1993,1995,1998,2003,2009,2013,
            Gaussian, Inc.  All Rights Reserved.
  
 This is part of the Gaussian(R) 09 program.  It is based on
 the Gaussian(R) 03 system (copyright 2003, Gaussian, Inc.),
 the Gaussian(R) 98 system (copyright 1998, Gaussian, Inc.),
 the Gaussian(R) 94 system (copyright 1995, Gaussian, Inc.),
 the Gaussian 92(TM) system (copyright 1992, Gaussian, Inc.),
 the Gaussian 90(TM) system (copyright 1990, Gaussian, Inc.),
 the Gaussian 88(TM) system (copyright 1988, Gaussian, Inc.),
 the Gaussian 86(TM) system (copyright 1986, Carnegie Mellon
 University), and the Gaussian 82(TM) system (copyright 1983,
 Carnegie Mellon University). Gaussian is a federally registered
 trademark of Gaussian, Inc.
  
 This software contains proprietary and confidential information,
 including trade secrets, belonging to Gaussian, Inc.
  
 This software is provided under written license and may be
 used, copied, transmitted, or stored only in accord with that
 written license.
  
 The following legend is applicable only to US Government
 contracts under FAR:
  
                    RESTRICTED RIGHTS LEGEND
  
 Use, reproduction and disclosure by the US Government is
 subject to restrictions as set forth in subparagraphs (a)
 and (c) of the Commercial Computer Software - Restricted
 Rights clause in FAR 52.227-19.
  
 Gaussian, Inc.
 340 Quinnipiac St., Bldg. 40, Wallingford CT 06492
  
  
 ---------------------------------------------------------------
 Warning -- This program may not be used in any manner that
 competes with the business of Gaussian, Inc. or will provide
 assistance to any competitor of Gaussian, Inc.  The licensee
 of this program is prohibited from giving any competitor of
 Gaussian, Inc. access to this program.  By using this program,
 the user acknowledges that Gaussian, Inc. is engaged in the
 business of creating and licensing software in the field of
 computational chemistry and represents and warrants to the
 licensee that it is not a competitor of Gaussian, Inc. and that
 it will not use this program in any manner prohibited above.
 ---------------------------------------------------------------
  

 Cite this work as:
 Gaussian 09, Revision D.01,
 M. J. Frisch, G. W. Trucks, H. B. Schlegel, G. E. Scuseria, 
 M. A. Robb, J. R. Cheeseman, G. Scalmani, V. Barone, B. Mennucci, 
 G. A. Petersson, H. Nakatsuji, M. Caricato, X. Li, H. P. Hratchian, 
 A. F. Izmaylov, J. Bloino, G. Zheng, J. L. Sonnenberg, M. Hada, 
 M. Ehara, K. Toyota, R. Fukuda, J. Hasegawa, M. Ishida, T. Nakajima, 
 Y. Honda, O. Kitao, H. Nakai, T. Vreven, J. A. Montgomery, Jr., 
 J. E. Peralta, F. Ogliaro, M. Bearpark, J. J. Heyd, E. Brothers, 
 K. N. Kudin, V. N. Staroverov, T. Keith, R. Kobayashi, J. Normand, 
 K. Raghavachari, A. Rendell, J. C. Burant, S. S. Iyengar, J. Tomasi, 
 M. Cossi, N. Rega, J. M. Millam, M. Klene, J. E. Knox, J. B. Cross, 
 V. Bakken, C. Adamo, J. Jaramillo, R. Gomperts, R. E. Stratmann, 
 O. Yazyev, A. J. Austin, R. Cammi, C. Pomelli, J. W. Ochterski, 
 R. L. Martin, K. Morokuma, V. G. Zakrzewski, G. A. Voth, 
 P. Salvador, J. J. Dannenberg, S. Dapprich, A. D. Daniels, 
 O. Farkas, J. B. Foresman, J. V. Ortiz, J. Cioslowski, 
 and D. J. Fox, Gaussian, Inc., Wallingford CT, 2013.
 
 ******************************************
 Gaussian 09:  ES64L-G09RevD.01 24-Apr-2013
                10-Nov-2025 
 ******************************************
 ----------------------
 #p M062X/6-311++G(d,p)
 ----------------------
 1/38=1/1;
 2/12=2,17=6,18=5,40=1/2;
 3/5=4,6=6,7=1111,11=2,16=1,25=1,30=1,74=-55/1,2,3;
 4//1;
 5/5=2,38=5/2;
 6/7=2,8=2,9=2,10=2,28=1/1;
 99/5=1,9=1/99;
 Leave Link    1 at Mon Nov 10 19:48:00 2025, MaxMem=           0 cpu:         0.0
 (Enter /opt/programs/gaussian/g09/d_pgi133/l101.exe)
 --
 SP
 --
 Symbolic Z-matrix:
 Charge =  0 Multiplicity = 1
 C                     1.41183  -0.20419   0.0468 
 H                     1.35912  -0.68024   1.03999 
 H                     2.02175  -0.86006  -0.59437 
 C                     0.01139  -0.0667   -0.5441 
 H                    -0.28993  -1.03806  -0.96266 
 H                     0.04597   0.64689  -1.3736 
 C                    -1.03482   0.37427   0.48196 
 H                    -1.05578  -0.34512   1.31825 
 H                    -0.75646   1.34679   0.89839 
 O                     1.98394   1.09894   0.12135 
 H                     2.82591   1.03238   0.58905 
 O                    -2.32824   0.54565  -0.0822 
 H                    -2.60704  -0.30927  -0.43613 
 
 NAtoms=     13 NQM=       13 NQMF=       0 NMMI=      0 NMMIF=      0
                NMic=       0 NMicF=      0.
                    Isotopes and Nuclear Properties:
 (Nuclear quadrupole moments (NQMom) in fm**2, nuclear magnetic moments (NMagM)
  in nuclear magnetons)

  Atom         1           2           3           4           5           6           7           8           9          10
 IAtWgt=          12           1           1          12           1           1          12           1           1          16
 AtmWgt=  12.0000000   1.0078250   1.0078250  12.0000000   1.0078250   1.0078250  12.0000000   1.0078250   1.0078250  15.9949146
 NucSpn=           0           1           1           0           1           1           0           1           1           0
 AtZEff=   0.0000000   0.0000000   0.0000000   0.0000000   0.0000000   0.0000000   0.0000000   0.0000000   0.0000000   0.0000000
 NQMom=    0.0000000   0.0000000   0.0000000   0.0000000   0.0000000   0.0000000   0.0000000   0.0000000   0.0000000   0.0000000
 NMagM=    0.0000000   2.7928460   2.7928460   0.0000000   2.7928460   2.7928460   0.0000000   2.7928460   2.7928460   0.0000000
 AtZNuc=   6.0000000   1.0000000   1.0000000   6.0000000   1.0000000   1.0000000   6.0000000   1.0000000   1.0000000   8.0000000

  Atom        11          12          13
 IAtWgt=           1          16           1
 AtmWgt=   1.0078250  15.9949146   1.0078250
 NucSpn=           1           0           1
 AtZEff=   0.0000000   0.0000000   0.0000000
 NQMom=    0.0000000   0.0000000   0.0000000
 NMagM=    2.7928460   0.0000000   2.7928460
 AtZNuc=   1.0000000   8.0000000   1.0000000
 Leave Link  101 at Mon Nov 10 19:48:00 2025, MaxMem=    33554432 cpu:         0.0
 (Enter /opt/programs/gaussian/g09/d_pgi133/l202.exe)
                          Input orientation:                          
 ---------------------------------------------------------------------
 Center     Atomic      Atomic             Coordinates (Angstroms)
 Number     Number       Type             X           Y           Z
 ---------------------------------------------------------------------
      1          6           0        1.411826   -0.204187    0.046796
      2          1           0        1.359118   -0.680244    1.039994
      3          1           0        2.021753   -0.860064   -0.594371
      4          6           0        0.011385   -0.066699   -0.544098
      5          1           0       -0.289931   -1.038057   -0.962663
      6          1           0        0.045968    0.646886   -1.373602
      7          6           0       -1.034816    0.374274    0.481962
      8          1           0       -1.055785   -0.345115    1.318245
      9          1           0       -0.756464    1.346792    0.898392
     10          8           0        1.983943    1.098943    0.121349
     11          1           0        2.825907    1.032384    0.589053
     12          8           0       -2.328236    0.545648   -0.082197
     13          1           0       -2.607042   -0.309268   -0.436125
 ---------------------------------------------------------------------
                    Distance matrix (angstroms):
                    1          2          3          4          5
     1  C    0.000000
     2  H    1.102656   0.000000
     3  H    1.101490   1.772729   0.000000
     4  C    1.526202   2.168449   2.161836   0.000000
     5  H    2.147166   2.618784   2.347595   1.099784   0.000000
     6  H    2.146491   3.051407   2.604194   1.094749   1.766559
     7  C    2.551479   2.674758   3.467664   1.530292   2.153247
     8  H    2.779487   2.453873   3.659851   2.164414   2.503845
     9  H    2.798613   2.933362   3.849291   2.160631   3.060831
    10  O    1.425140   2.097575   2.085999   2.385902   3.303385
    11  H    1.955192   2.299546   2.372449   3.227003   4.050061
    12  O    3.816668   4.044589   4.600082   2.462143   2.727275
    13  H    4.049142   4.248173   4.664136   2.631854   2.485433
                    6          7          8          9         10
     6  H    0.000000
     7  C    2.164608   0.000000
     8  H    3.073104   1.103327   0.000000
     9  H    2.509128   1.093931   1.768734   0.000000
    10  O    2.488972   3.125395   3.571808   2.859205   0.000000
    11  H    3.424717   3.917877   4.182913   3.609422   0.965443
    12  O    2.704593   1.421471   2.091370   2.018379   4.352293
    13  H    2.971793   1.944739   2.342114   2.819239   4.834354
                   11         12         13
    11  H    0.000000
    12  O    5.220410   0.000000
    13  H    5.689284   0.966374   0.000000
 Stoichiometry    C3H8O2
 Framework group  C1[X(C3H8O2)]
 Deg. of freedom    33
 Full point group                 C1      NOp   1
 Largest Abelian subgroup         C1      NOp   1
 Largest concise Abelian subgroup C1      NOp   1
                         Standard orientation:                         
 ---------------------------------------------------------------------
 Center     Atomic      Atomic             Coordinates (Angstroms)
 Number     Number       Type             X           Y           Z
 ---------------------------------------------------------------------
      1          6           0       -1.365571    0.502681    0.283139
      2          1           0       -1.315321    0.433622    1.382483
      3          1           0       -1.938676    1.411893    0.041967
      4          6           0        0.040380    0.612143   -0.300483
      5          1           0        0.384738    1.651184   -0.194023
      6          1           0       -0.003558    0.393546   -1.372286
      7          6           0        1.049552   -0.314371    0.381379
      8          1           0        1.079963   -0.093441    1.461932
      9          1           0        0.728139   -1.354333    0.272482
     10          8           0       -1.985685   -0.647759   -0.285164
     11          1           0       -2.833760   -0.782259    0.156151
     12          8           0        2.346822   -0.243084   -0.195325
     13          1           0        2.663214    0.663817   -0.088994
 ---------------------------------------------------------------------
 Rotational constants (GHZ):     13.9957401      2.2854935      2.1618723
 Leave Link  202 at Mon Nov 10 19:48:00 2025, MaxMem=    33554432 cpu:         0.0
 (Enter /opt/programs/gaussian/g09/d_pgi133/l301.exe)
 Standard basis: 6-311++G(d,p) (5D, 7F)
 Ernie: Thresh=  0.10000D-02 Tol=  0.10000D-05 Strict=F.
 There are   171 symmetry adapted cartesian basis functions of A   symmetry.
 There are   166 symmetry adapted basis functions of A   symmetry.
   166 basis functions,   252 primitive gaussians,   171 cartesian basis functions
    21 alpha electrons       21 beta electrons
       nuclear repulsion energy       186.7833308366 Hartrees.
 IExCor= 4336 DFT=T Ex+Corr=M062X ExCW=0 ScaHFX=  0.540000
 ScaDFX=  1.000000  1.000000  1.000000  1.000000 ScalE2=  1.000000  1.000000
 IRadAn=      0 IRanWt=     -1 IRanGd=            0 ICorTp=0 IEmpDi=  4
 NAtoms=   13 NActive=   13 NUniq=   13 SFac= 1.00D+00 NAtFMM=   60 NAOKFM=F Big=F
 Integral buffers will be    131072 words long.
 Raffenetti 2 integral format.
 Two-electron integral symmetry is turned on.
 Leave Link  301 at Mon Nov 10 19:48:00 2025, MaxMem=    33554432 cpu:         0.0
 (Enter /opt/programs/gaussian/g09/d_pgi133/l302.exe)
 NPDir=0 NMtPBC=     1 NCelOv=     1 NCel=       1 NClECP=     1 NCelD=      1
         NCelK=      1 NCelE2=     1 NClLst=     1 CellRange=     0.0.
 One-electron integrals computed using PRISM.
 NBasis=   166 RedAO= T EigKep=  3.72D-05  NBF=   166
 NBsUse=   166 1.00D-06 EigRej= -1.00D+00 NBFU=   166
 Precomputing XC quadrature grid using
 IXCGrd= 4 IRadAn=           0 IRanWt=          -1 IRanGd=           0 AccXCQ= 0.00D+00.
 Generated NRdTot=       0 NPtTot=           0 NUsed=           0 NTot=          32
 NSgBfM=   171   171   171   171   171 MxSgAt=    13 MxSgA2=    13.
 Leave Link  302 at Mon Nov 10 19:48:00 2025, MaxMem=    33554432 cpu:         0.1
 (Enter /opt/programs/gaussian/g09/d_pgi133/l303.exe)
 DipDrv:  MaxL=1.
 Leave Link  303 at Mon Nov 10 19:48:00 2025, MaxMem=    33554432 cpu:         0.0
 (Enter /opt/programs/gaussian/g09/d_pgi133/l401.exe)
 ExpMin= 3.60D-02 ExpMax= 8.59D+03 ExpMxC= 1.30D+03 IAcc=3 IRadAn=         5 AccDes= 0.00D+00
 Harris functional with IExCor= 1009 and IRadAn=       5 diagonalized for initial guess.
 HarFok:  IExCor= 1009 AccDes= 0.00D+00 IRadAn=         5 IDoV= 1 UseB2=F ITyADJ=14
 ICtDFT=  3500011 ScaDFX=  1.000000  1.000000  1.000000  1.000000
 FoFCou: FMM=F IPFlag=           0 FMFlag=      100000 FMFlg1=           0
         NFxFlg=           0 DoJE=T BraDBF=F KetDBF=T FulRan=T
         wScrn=  0.000000 ICntrl=     500 IOpCl=  0 I1Cent=   200000004 NGrid=           0
         NMat0=    1 NMatS0=      1 NMatT0=    0 NMatD0=    1 NMtDS0=    0 NMtDT0=    0
 Petite list used in FoFCou.
 Harris En= -269.443066444990    
 JPrj=0 DoOrth=F DoCkMO=F.
 Leave Link  401 at Mon Nov 10 19:48:01 2025, MaxMem=    33554432 cpu:         1.5
 (Enter /opt/programs/gaussian/g09/d_pgi133/l502.exe)
 Closed shell SCF:
 Using DIIS extrapolation, IDIIS=  1040.
 Integral symmetry usage will be decided dynamically.
 IVT=      108587 IEndB=      108587 NGot=    33554432 MDV=    33491898
 LenX=    33491898 LenY=    33462216
 Requested convergence on RMS density matrix=1.00D-08 within 128 cycles.
 Requested convergence on MAX density matrix=1.00D-06.
 Requested convergence on             energy=1.00D-06.
 No special actions if energy rises.
 Fock matrices will be formed incrementally for  20 cycles.

 Cycle   1  Pass 1  IDiag  1:
 FoFJK:  IHMeth= 1 ICntrl=       0 DoSepK=F KAlg= 0 I1Cent=   0 FoldK=F
 IRaf= 980000000 NMat=   1 IRICut=       1 DoRegI=T DoRafI=F ISym2E= 0.
 FoFCou: FMM=F IPFlag=           0 FMFlag=      100000 FMFlg1=           0
         NFxFlg=           0 DoJE=F BraDBF=F KetDBF=F FulRan=T
         wScrn=  0.000000 ICntrl=       0 IOpCl=  0 I1Cent=           0 NGrid=           0
         NMat0=    1 NMatS0=      1 NMatT0=    0 NMatD0=    1 NMtDS0=    0 NMtDT0=    0
 Symmetry not used in FoFCou.
 E= -269.359151074279    
 DIIS: error= 3.26D-02 at cycle   1 NSaved=   1.
 NSaved= 1 IEnMin= 1 EnMin= -269.359151074279     IErMin= 1 ErrMin= 3.26D-02
 ErrMax= 3.26D-02  0.00D+00 EMaxC= 1.00D-01 BMatC= 2.37D-01 BMatP= 2.37D-01
 IDIUse=3 WtCom= 6.74D-01 WtEn= 3.26D-01
 Coeff-Com:  0.100D+01
 Coeff-En:   0.100D+01
 Coeff:      0.100D+01
 Gap=     0.279 Goal=   None    Shift=    0.000
 GapD=    0.279 DampG=1.000 DampE=0.500 DampFc=0.5000 IDamp=-1.
 Damping current iteration by 5.00D-01
 RMSDP=8.11D-03 MaxDP=2.68D-01              OVMax= 1.36D-01

 Cycle   2  Pass 1  IDiag  1:
 RMSU=  4.05D-03    CP:  1.01D+00
 E= -269.440652681133     Delta-E=       -0.081501606855 Rises=F Damp=T
 DIIS: error= 7.12D-03 at cycle   2 NSaved=   2.
 NSaved= 2 IEnMin= 2 EnMin= -269.440652681133     IErMin= 2 ErrMin= 7.12D-03
 ErrMax= 7.12D-03  0.00D+00 EMaxC= 1.00D-01 BMatC= 1.54D-02 BMatP= 2.37D-01
 IDIUse=3 WtCom= 9.29D-01 WtEn= 7.12D-02
 Coeff-Com: -0.306D-01 0.103D+01
 Coeff-En:   0.000D+00 0.100D+01
 Coeff:     -0.285D-01 0.103D+01
 Gap=     0.346 Goal=   None    Shift=    0.000
 RMSDP=2.70D-03 MaxDP=1.37D-01 DE=-8.15D-02 OVMax= 7.56D-02

 Cycle   3  Pass 1  IDiag  1:
 RMSU=  2.33D-03    CP:  9.70D-01  7.00D-01
 E= -269.526724055896     Delta-E=       -0.086071374762 Rises=F Damp=F
 DIIS: error= 4.82D-03 at cycle   3 NSaved=   3.
 NSaved= 3 IEnMin= 3 EnMin= -269.526724055896     IErMin= 3 ErrMin= 4.82D-03
 ErrMax= 4.82D-03  0.00D+00 EMaxC= 1.00D-01 BMatC= 4.23D-03 BMatP= 1.54D-02
 IDIUse=3 WtCom= 9.52D-01 WtEn= 4.82D-02
 Coeff-Com: -0.762D-01 0.320D+00 0.757D+00
 Coeff-En:   0.000D+00 0.000D+00 0.100D+01
 Coeff:     -0.725D-01 0.304D+00 0.768D+00
 Gap=     0.340 Goal=   None    Shift=    0.000
 RMSDP=5.02D-04 MaxDP=2.31D-02 DE=-8.61D-02 OVMax= 1.20D-02

 Cycle   4  Pass 1  IDiag  1:
 RMSU=  3.68D-04    CP:  9.75D-01  7.81D-01  9.78D-01
 E= -269.528965637268     Delta-E=       -0.002241581372 Rises=F Damp=F
 DIIS: error= 1.94D-03 at cycle   4 NSaved=   4.
 NSaved= 4 IEnMin= 4 EnMin= -269.528965637268     IErMin= 4 ErrMin= 1.94D-03
 ErrMax= 1.94D-03  0.00D+00 EMaxC= 1.00D-01 BMatC= 8.07D-04 BMatP= 4.23D-03
 IDIUse=3 WtCom= 9.81D-01 WtEn= 1.94D-02
 Coeff-Com: -0.316D-01 0.843D-01 0.374D+00 0.574D+00
 Coeff-En:   0.000D+00 0.000D+00 0.117D+00 0.883D+00
 Coeff:     -0.310D-01 0.827D-01 0.369D+00 0.580D+00
 Gap=     0.337 Goal=   None    Shift=    0.000
 RMSDP=2.05D-04 MaxDP=9.72D-03 DE=-2.24D-03 OVMax= 4.80D-03

 Cycle   5  Pass 1  IDiag  1:
 RMSU=  1.14D-04    CP:  9.71D-01  7.57D-01  9.89D-01  6.63D-01
 E= -269.529620592830     Delta-E=       -0.000654955562 Rises=F Damp=F
 DIIS: error= 1.62D-04 at cycle   5 NSaved=   5.
 NSaved= 5 IEnMin= 5 EnMin= -269.529620592830     IErMin= 5 ErrMin= 1.62D-04
 ErrMax= 1.62D-04  0.00D+00 EMaxC= 1.00D-01 BMatC= 9.34D-06 BMatP= 8.07D-04
 IDIUse=3 WtCom= 9.98D-01 WtEn= 1.62D-03
 Coeff-Com: -0.375D-02 0.521D-02 0.512D-01 0.144D+00 0.803D+00
 Coeff-En:   0.000D+00 0.000D+00 0.000D+00 0.000D+00 0.100D+01
 Coeff:     -0.374D-02 0.520D-02 0.511D-01 0.144D+00 0.803D+00
 Gap=     0.337 Goal=   None    Shift=    0.000
 RMSDP=4.02D-05 MaxDP=9.24D-04 DE=-6.55D-04 OVMax= 6.01D-04

 Cycle   6  Pass 1  IDiag  1:
 RMSU=  2.55D-05    CP:  9.71D-01  7.52D-01  9.95D-01  7.01D-01  9.06D-01
 E= -269.529628389528     Delta-E=       -0.000007796698 Rises=F Damp=F
 DIIS: error= 2.14D-05 at cycle   6 NSaved=   6.
 NSaved= 6 IEnMin= 6 EnMin= -269.529628389528     IErMin= 6 ErrMin= 2.14D-05
 ErrMax= 2.14D-05  0.00D+00 EMaxC= 1.00D-01 BMatC= 1.59D-07 BMatP= 9.34D-06
 IDIUse=1 WtCom= 1.00D+00 WtEn= 0.00D+00
 Coeff-Com:  0.738D-03-0.208D-02-0.696D-02-0.456D-02 0.534D-01 0.959D+00
 Coeff:      0.738D-03-0.208D-02-0.696D-02-0.456D-02 0.534D-01 0.959D+00
 Gap=     0.337 Goal=   None    Shift=    0.000
 RMSDP=1.03D-05 MaxDP=4.10D-04 DE=-7.80D-06 OVMax= 1.48D-04

 Cycle   7  Pass 1  IDiag  1:
 RMSU=  5.89D-06    CP:  9.71D-01  7.50D-01  9.95D-01  7.06D-01  9.36D-01
                    CP:  1.10D+00
 E= -269.529628559148     Delta-E=       -0.000000169621 Rises=F Damp=F
 DIIS: error= 1.25D-05 at cycle   7 NSaved=   7.
 NSaved= 7 IEnMin= 7 EnMin= -269.529628559148     IErMin= 7 ErrMin= 1.25D-05
 ErrMax= 1.25D-05  0.00D+00 EMaxC= 1.00D-01 BMatC= 5.06D-08 BMatP= 1.59D-07
 IDIUse=1 WtCom= 1.00D+00 WtEn= 0.00D+00
 Coeff-Com:  0.568D-03-0.122D-02-0.639D-02-0.115D-01-0.322D-01 0.388D+00
 Coeff-Com:  0.662D+00
 Coeff:      0.568D-03-0.122D-02-0.639D-02-0.115D-01-0.322D-01 0.388D+00
 Coeff:      0.662D+00
 Gap=     0.337 Goal=   None    Shift=    0.000
 RMSDP=2.85D-06 MaxDP=1.04D-04 DE=-1.70D-07 OVMax= 4.51D-05

 Cycle   8  Pass 1  IDiag  1:
 RMSU=  1.14D-06    CP:  9.71D-01  7.50D-01  9.95D-01  7.07D-01  9.37D-01
                    CP:  1.15D+00  8.63D-01
 E= -269.529628599582     Delta-E=       -0.000000040434 Rises=F Damp=F
 DIIS: error= 3.26D-06 at cycle   8 NSaved=   8.
 NSaved= 8 IEnMin= 8 EnMin= -269.529628599582     IErMin= 8 ErrMin= 3.26D-06
 ErrMax= 3.26D-06  0.00D+00 EMaxC= 1.00D-01 BMatC= 4.56D-09 BMatP= 5.06D-08
 IDIUse=1 WtCom= 1.00D+00 WtEn= 0.00D+00
 Coeff-Com:  0.161D-03-0.314D-03-0.198D-02-0.416D-02-0.175D-01 0.786D-01
 Coeff-Com:  0.271D+00 0.674D+00
 Coeff:      0.161D-03-0.314D-03-0.198D-02-0.416D-02-0.175D-01 0.786D-01
 Coeff:      0.271D+00 0.674D+00
 Gap=     0.337 Goal=   None    Shift=    0.000
 RMSDP=7.83D-07 MaxDP=3.04D-05 DE=-4.04D-08 OVMax= 1.55D-05

 Cycle   9  Pass 1  IDiag  1:
 RMSU=  4.30D-07    CP:  9.71D-01  7.49D-01  9.95D-01  7.07D-01  9.38D-01
                    CP:  1.15D+00  9.34D-01  8.76D-01
 E= -269.529628602878     Delta-E=       -0.000000003296 Rises=F Damp=F
 DIIS: error= 9.99D-07 at cycle   9 NSaved=   9.
 NSaved= 9 IEnMin= 9 EnMin= -269.529628602878     IErMin= 9 ErrMin= 9.99D-07
 ErrMax= 9.99D-07  0.00D+00 EMaxC= 1.00D-01 BMatC= 2.79D-10 BMatP= 4.56D-09
 IDIUse=1 WtCom= 1.00D+00 WtEn= 0.00D+00
 Coeff-Com:  0.427D-05-0.308D-05-0.153D-03-0.452D-03-0.330D-02-0.484D-02
 Coeff-Com:  0.350D-01 0.221D+00 0.753D+00
 Coeff:      0.427D-05-0.308D-05-0.153D-03-0.452D-03-0.330D-02-0.484D-02
 Coeff:      0.350D-01 0.221D+00 0.753D+00
 Gap=     0.337 Goal=   None    Shift=    0.000
 RMSDP=1.68D-07 MaxDP=3.14D-06 DE=-3.30D-09 OVMax= 4.74D-06

 Cycle  10  Pass 1  IDiag  1:
 RMSU=  1.13D-07    CP:  9.71D-01  7.49D-01  9.95D-01  7.07D-01  9.37D-01
                    CP:  1.15D+00  9.45D-01  9.39D-01  1.01D+00
 E= -269.529628603107     Delta-E=       -0.000000000229 Rises=F Damp=F
 DIIS: error= 3.01D-07 at cycle  10 NSaved=  10.
 NSaved=10 IEnMin=10 EnMin= -269.529628603107     IErMin=10 ErrMin= 3.01D-07
 ErrMax= 3.01D-07  0.00D+00 EMaxC= 1.00D-01 BMatC= 3.30D-11 BMatP= 2.79D-10
 IDIUse=1 WtCom= 1.00D+00 WtEn= 0.00D+00
 Coeff-Com: -0.137D-04 0.286D-04 0.130D-03 0.232D-03 0.506D-03-0.899D-02
 Coeff-Com: -0.167D-01 0.352D-02 0.281D+00 0.741D+00
 Coeff:     -0.137D-04 0.286D-04 0.130D-03 0.232D-03 0.506D-03-0.899D-02
 Coeff:     -0.167D-01 0.352D-02 0.281D+00 0.741D+00
 Gap=     0.337 Goal=   None    Shift=    0.000
 RMSDP=5.43D-08 MaxDP=1.06D-06 DE=-2.29D-10 OVMax= 1.78D-06

 Cycle  11  Pass 1  IDiag  1:
 RMSU=  3.28D-08    CP:  9.71D-01  7.49D-01  9.95D-01  7.07D-01  9.37D-01
                    CP:  1.15D+00  9.51D-01  9.58D-01  1.06D+00  1.00D+00
 E= -269.529628603148     Delta-E=       -0.000000000041 Rises=F Damp=F
 DIIS: error= 5.22D-08 at cycle  11 NSaved=  11.
 NSaved=11 IEnMin=11 EnMin= -269.529628603148     IErMin=11 ErrMin= 5.22D-08
 ErrMax= 5.22D-08  0.00D+00 EMaxC= 1.00D-01 BMatC= 7.30D-13 BMatP= 3.30D-11
 IDIUse=1 WtCom= 1.00D+00 WtEn= 0.00D+00
 Coeff-Com: -0.167D-05 0.363D-05 0.266D-04 0.501D-04 0.228D-03-0.688D-03
 Coeff-Com: -0.416D-02-0.131D-01-0.679D-02 0.849D-01 0.940D+00
 Coeff:     -0.167D-05 0.363D-05 0.266D-04 0.501D-04 0.228D-03-0.688D-03
 Coeff:     -0.416D-02-0.131D-01-0.679D-02 0.849D-01 0.940D+00
 Gap=     0.337 Goal=   None    Shift=    0.000
 RMSDP=2.43D-08 MaxDP=1.16D-06 DE=-4.14D-11 OVMax= 6.29D-07

 Cycle  12  Pass 1  IDiag  1:
 RMSU=  1.08D-08    CP:  9.71D-01  7.49D-01  9.95D-01  7.07D-01  9.37D-01
                    CP:  1.15D+00  9.52D-01  9.63D-01  1.08D+00  1.08D+00
                    CP:  1.08D+00
 E= -269.529628603148     Delta-E=        0.000000000000 Rises=F Damp=F
 DIIS: error= 1.43D-08 at cycle  12 NSaved=  12.
 NSaved=12 IEnMin=12 EnMin= -269.529628603148     IErMin=12 ErrMin= 1.43D-08
 ErrMax= 1.43D-08  0.00D+00 EMaxC= 1.00D-01 BMatC= 5.17D-14 BMatP= 7.30D-13
 IDIUse=1 WtCom= 1.00D+00 WtEn= 0.00D+00
 Coeff-Com:  0.833D-06-0.161D-05-0.570D-05-0.116D-04-0.209D-04 0.514D-03
 Coeff-Com:  0.620D-03-0.195D-02-0.191D-01-0.367D-01 0.137D+00 0.920D+00
 Coeff:      0.833D-06-0.161D-05-0.570D-05-0.116D-04-0.209D-04 0.514D-03
 Coeff:      0.620D-03-0.195D-02-0.191D-01-0.367D-01 0.137D+00 0.920D+00
 Gap=     0.337 Goal=   None    Shift=    0.000
 RMSDP=4.39D-09 MaxDP=1.00D-07 DE=-4.55D-13 OVMax= 1.88D-07

 SCF Done:  E(RM062X) =  -269.529628603     A.U. after   12 cycles
            NFock= 12  Conv=0.44D-08     -V/T= 2.0039
 KE= 2.684935012281D+02 PE=-1.005197975432D+03 EE= 2.803915147645D+02
 Leave Link  502 at Mon Nov 10 19:48:26 2025, MaxMem=    33554432 cpu:        24.7
 (Enter /opt/programs/gaussian/g09/d_pgi133/l601.exe)
 Copying SCF densities to generalized density rwf, IOpCl= 0 IROHF=0.

 **********************************************************************

            Population analysis using the SCF density.

 **********************************************************************

 Orbital symmetries:
       Occupied  (A) (A) (A) (A) (A) (A) (A) (A) (A) (A) (A) (A)
                 (A) (A) (A) (A) (A) (A) (A) (A) (A)
       Virtual   (A) (A) (A) (A) (A) (A) (A) (A) (A) (A) (A) (A)
                 (A) (A) (A) (A) (A) (A) (A) (A) (A) (A) (A) (A)
                 (A) (A) (A) (A) (A) (A) (A) (A) (A) (A) (A) (A)
                 (A) (A) (A) (A) (A) (A) (A) (A) (A) (A) (A) (A)
                 (A) (A) (A) (A) (A) (A) (A) (A) (A) (A) (A) (A)
                 (A) (A) (A) (A) (A) (A) (A) (A) (A) (A) (A) (A)
                 (A) (A) (A) (A) (A) (A) (A) (A) (A) (A) (A) (A)
                 (A) (A) (A) (A) (A) (A) (A) (A) (A) (A) (A) (A)
                 (A) (A) (A) (A) (A) (A) (A) (A) (A) (A) (A) (A)
                 (A) (A) (A) (A) (A) (A) (A) (A) (A) (A) (A) (A)
                 (A) (A) (A) (A) (A) (A) (A) (A) (A) (A) (A) (A)
                 (A) (A) (A) (A) (A) (A) (A) (A) (A) (A) (A) (A)
                 (A)
 The electronic state is 1-A.
 Alpha  occ. eigenvalues --  -19.62880 -19.62140 -10.59424 -10.58242 -10.53829
 Alpha  occ. eigenvalues --   -1.15040  -1.14262  -0.87739  -0.76342  -0.68476
 Alpha  occ. eigenvalues --   -0.60971  -0.58441  -0.53528  -0.51248  -0.49961
 Alpha  occ. eigenvalues --   -0.45657  -0.44050  -0.41410  -0.39250  -0.35869
 Alpha  occ. eigenvalues --   -0.34519
 Alpha virt. eigenvalues --   -0.00836   0.00224   0.01595   0.02022   0.03641
 Alpha virt. eigenvalues --    0.04631   0.05116   0.05710   0.07312   0.09584
 Alpha virt. eigenvalues --    0.09856   0.11536   0.11694   0.12436   0.13136
 Alpha virt. eigenvalues --    0.13439   0.14020   0.15601   0.16440   0.17018
 Alpha virt. eigenvalues --    0.19996   0.20729   0.21519   0.22196   0.22963
 Alpha virt. eigenvalues --    0.23902   0.25890   0.26423   0.27237   0.29161
 Alpha virt. eigenvalues --    0.30059   0.30986   0.31618   0.32021   0.32978
 Alpha virt. eigenvalues --    0.34733   0.35271   0.37911   0.40432   0.41705
 Alpha virt. eigenvalues --    0.47376   0.49013   0.50976   0.53385   0.57751
 Alpha virt. eigenvalues --    0.59444   0.60627   0.63810   0.65102   0.68050
 Alpha virt. eigenvalues --    0.69607   0.71107   0.71708   0.74984   0.75474
 Alpha virt. eigenvalues --    0.76239   0.78724   0.92887   0.95656   1.02500
 Alpha virt. eigenvalues --    1.03867   1.05118   1.13374   1.15344   1.18876
 Alpha virt. eigenvalues --    1.21962   1.23575   1.28484   1.30480   1.34197
 Alpha virt. eigenvalues --    1.40142   1.41395   1.45612   1.47394   1.53398
 Alpha virt. eigenvalues --    1.56210   1.59052   1.59860   1.60018   1.63286
 Alpha virt. eigenvalues --    1.64208   1.66081   1.69576   1.71329   1.75622
 Alpha virt. eigenvalues --    1.76525   1.80829   1.82074   1.84725   1.90521
 Alpha virt. eigenvalues --    1.95343   2.01960   2.04007   2.08733   2.12226
 Alpha virt. eigenvalues --    2.15109   2.17834   2.23149   2.28273   2.34789
 Alpha virt. eigenvalues --    2.35455   2.48219   2.50048   2.52252   2.55139
 Alpha virt. eigenvalues --    2.57292   2.60359   2.62189   2.63857   2.66276
 Alpha virt. eigenvalues --    2.71854   2.77209   2.81538   2.87038   2.91182
 Alpha virt. eigenvalues --    2.96922   3.01971   3.12833   3.18100   3.19014
 Alpha virt. eigenvalues --    3.24075   3.26869   3.33392   3.36373   3.44442
 Alpha virt. eigenvalues --    3.77361   3.81613   3.87893   3.92187   3.94730
 Alpha virt. eigenvalues --    4.04138   4.05980   4.18309   4.34820   5.17348
 Alpha virt. eigenvalues --    5.19371   5.49825   5.50450   5.73468   5.74788
 Alpha virt. eigenvalues --   23.89667  23.92967  23.98141  50.02545  50.03323
          Condensed to atoms (all electrons):
               1          2          3          4          5          6
     1  C    5.735511   0.310322   0.454898  -0.230996   0.023338  -0.089600
     2  H    0.310322   0.692535  -0.100115   0.060235  -0.009171   0.006568
     3  H    0.454898  -0.100115   0.652265  -0.124471   0.004396  -0.001006
     4  C   -0.230996   0.060235  -0.124471   6.063812   0.247363   0.533641
     5  H    0.023338  -0.009171   0.004396   0.247363   0.643063  -0.069116
     6  H   -0.089600   0.006568  -0.001006   0.533641  -0.069116   0.503906
     7  C   -0.000124  -0.043560   0.012554  -0.206750   0.059074  -0.088305
     8  H   -0.036344   0.005894   0.003601   0.151929  -0.058025   0.022436
     9  H    0.016996  -0.000326   0.000204  -0.111793   0.026651  -0.021433
    10  O    0.216546  -0.057814  -0.061539  -0.071729   0.029311  -0.034391
    11  H    0.020352  -0.015885   0.000251  -0.021129  -0.003121   0.003749
    12  O    0.021917   0.001002   0.000024  -0.050616  -0.030348   0.018159
    13  H    0.004749   0.002511  -0.001666  -0.011100   0.014445  -0.006549
               7          8          9         10         11         12
     1  C   -0.000124  -0.036344   0.016996   0.216546   0.020352   0.021917
     2  H   -0.043560   0.005894  -0.000326  -0.057814  -0.015885   0.001002
     3  H    0.012554   0.003601   0.000204  -0.061539   0.000251   0.000024
     4  C   -0.206750   0.151929  -0.111793  -0.071729  -0.021129  -0.050616
     5  H    0.059074  -0.058025   0.026651   0.029311  -0.003121  -0.030348
     6  H   -0.088305   0.022436  -0.021433  -0.034391   0.003749   0.018159
     7  C    5.776951   0.183416   0.477086  -0.062228   0.013896   0.192434
     8  H    0.183416   0.724585  -0.094926  -0.012913   0.001270  -0.014143
     9  H    0.477086  -0.094926   0.569119   0.030492  -0.003626  -0.095215
    10  O   -0.062228  -0.012913   0.030492   8.062691   0.228877  -0.003312
    11  H    0.013896   0.001270  -0.003626   0.228877   0.512381  -0.000196
    12  O    0.192434  -0.014143  -0.095215  -0.003312  -0.000196   7.976367
    13  H   -0.022465  -0.024341   0.020230  -0.000565   0.000110   0.247079
              13
     1  C    0.004749
     2  H    0.002511
     3  H   -0.001666
     4  C   -0.011100
     5  H    0.014445
     6  H   -0.006549
     7  C   -0.022465
     8  H   -0.024341
     9  H    0.020230
    10  O   -0.000565
    11  H    0.000110
    12  O    0.247079
    13  H    0.532708
 Mulliken charges:
               1
     1  C   -0.447564
     2  H    0.147802
     3  H    0.160606
     4  C   -0.228397
     5  H    0.122141
     6  H    0.221942
     7  C   -0.291980
     8  H    0.147562
     9  H    0.186541
    10  O   -0.263428
    11  H    0.263072
    12  O   -0.263151
    13  H    0.244854
 Sum of Mulliken charges =   0.00000
 Mulliken charges with hydrogens summed into heavy atoms:
               1
     1  C   -0.139156
     4  C    0.115686
     7  C    0.042123
    10  O   -0.000356
    12  O   -0.018297
 Electronic spatial extent (au):  <R**2>=            573.7209
 Charge=              0.0000 electrons
 Dipole moment (field-independent basis, Debye):
    X=             -1.7416    Y=              2.3289    Z=              1.9450  Tot=              3.4986
 Quadrupole moment (field-independent basis, Debye-Ang):
   XX=            -30.4326   YY=            -31.4585   ZZ=            -32.8100
   XY=              4.0125   XZ=             -1.5097   YZ=             -1.1485
 Traceless Quadrupole moment (field-independent basis, Debye-Ang):
   XX=              1.1344   YY=              0.1085   ZZ=             -1.2429
   XY=              4.0125   XZ=             -1.5097   YZ=             -1.1485
 Octapole moment (field-independent basis, Debye-Ang**2):
  XXX=            -27.5894  YYY=             -1.6765  ZZZ=             -0.1377  XYY=              1.8314
  XXY=              9.6136  XXZ=              9.4585  XZZ=              0.1219  YZZ=             -0.4698
  YYZ=              0.0918  XYZ=              1.5358
 Hexadecapole moment (field-independent basis, Debye-Ang**3):
 XXXX=           -461.1715 YYYY=           -103.2945 ZZZZ=            -73.2205 XXXY=             60.3082
 XXXZ=            -12.2507 YYYX=              6.2947 YYYZ=             -0.0433 ZZZX=             -0.3901
 ZZZY=              0.3622 XXYY=            -96.2570 XXZZ=           -106.3838 YYZZ=            -32.1005
 XXYZ=             -6.5395 YYXZ=             -0.9102 ZZXY=              1.7936
 N-N= 1.867833308366D+02 E-N=-1.005197976226D+03  KE= 2.684935012281D+02
 No NMR shielding tensors so no spin-rotation constants.
 Leave Link  601 at Mon Nov 10 19:48:26 2025, MaxMem=    33554432 cpu:         0.1
 (Enter /opt/programs/gaussian/g09/d_pgi133/l9999.exe)
 1\1\GINC-EXADE5\SP\RM062X\6-311++G(d,p)\C3H8O2\APINTO\10-Nov-2025\0\\#
 p M062X/6-311++G(d,p)\\SP\\0,1\C,0,1.411826,-0.204187,0.046796\H,0,1.3
 59118,-0.680244,1.039994\H,0,2.021753,-0.860064,-0.594371\C,0,0.011385
 ,-0.066699,-0.544098\H,0,-0.289931,-1.038057,-0.962663\H,0,0.045968,0.
 646886,-1.373602\C,0,-1.034816,0.374274,0.481962\H,0,-1.055785,-0.3451
 15,1.318245\H,0,-0.756464,1.346792,0.898392\O,0,1.983943,1.098943,0.12
 1349\H,0,2.825907,1.032384,0.589053\O,0,-2.328236,0.545648,-0.082197\H
 ,0,-2.607042,-0.309268,-0.436125\\Version=ES64L-G09RevD.01\State=1-A\H
 F=-269.5296286\RMSD=4.385e-09\Dipole=0.7225244,-1.1473433,0.2370479\Qu
 adrupole=0.5976941,-0.7323349,0.1346408,2.0975857,2.4098903,1.0054874\
 PG=C01 [X(C3H8O2)]\\@


 THE TEST OF A FIRST RATE INTELLIGENCE IS THE ABILITY TO HOLD TWO OPPOSED
 IDEAS IN THE MIND AT THE SAME TIME, AND STILL RETAIN THE ABILITY TO FUNCTION.
 ONE SHOULD, FOR EXAMPLE, BE ABLE TO SEE THAT THINGS ARE HOPELESS AND YET BE
 DETERMINED TO MAKE THEM OTHERWISE.

                                                       -- F. SCOTT FITZGERALD
 Job cpu time:       0 days  0 hours  0 minutes 26.3 seconds.
 File lengths (MBytes):  RWF=     16 Int=      0 D2E=      0 Chk=      2 Scr=      1
 Normal termination of Gaussian 09 at Mon Nov 10 19:48:26 2025.
