 Entering Gaussian System, Link 0=g09
 Input=xbo.com
 Output=xbo.log
 Initial command:
 /opt/programs/gaussian/g09/d_pgi133/l1.exe "/scratch/users/apinto/lixo/Gau-1270423.inp" -scrdir="/scratch/users/apinto/lixo/"
 Entering Link 1 = /opt/programs/gaussian/g09/d_pgi133/l1.exe PID=   1270425.
  
 Copyright (c) 1988,1990,1992,1993,1995,1998,2003,2009,2013,
            Gaussian, Inc.  All Rights Reserved.
  
 This is part of the Gaussian(R) 09 program.  It is based on
 the Gaussian(R) 03 system (copyright 2003, Gaussian, Inc.),
 the Gaussian(R) 98 system (copyright 1998, Gaussian, Inc.),
 the Gaussian(R) 94 system (copyright 1995, Gaussian, Inc.),
 the Gaussian 92(TM) system (copyright 1992, Gaussian, Inc.),
 the Gaussian 90(TM) system (copyright 1990, Gaussian, Inc.),
 the Gaussian 88(TM) system (copyright 1988, Gaussian, Inc.),
 the Gaussian 86(TM) system (copyright 1986, Carnegie Mellon
 University), and the Gaussian 82(TM) system (copyright 1983,
 Carnegie Mellon University). Gaussian is a federally registered
 trademark of Gaussian, Inc.
  
 This software contains proprietary and confidential information,
 including trade secrets, belonging to Gaussian, Inc.
  
 This software is provided under written license and may be
 used, copied, transmitted, or stored only in accord with that
 written license.
  
 The following legend is applicable only to US Government
 contracts under FAR:
  
                    RESTRICTED RIGHTS LEGEND
  
 Use, reproduction and disclosure by the US Government is
 subject to restrictions as set forth in subparagraphs (a)
 and (c) of the Commercial Computer Software - Restricted
 Rights clause in FAR 52.227-19.
  
 Gaussian, Inc.
 340 Quinnipiac St., Bldg. 40, Wallingford CT 06492
  
  
 ---------------------------------------------------------------
 Warning -- This program may not be used in any manner that
 competes with the business of Gaussian, Inc. or will provide
 assistance to any competitor of Gaussian, Inc.  The licensee
 of this program is prohibited from giving any competitor of
 Gaussian, Inc. access to this program.  By using this program,
 the user acknowledges that Gaussian, Inc. is engaged in the
 business of creating and licensing software in the field of
 computational chemistry and represents and warrants to the
 licensee that it is not a competitor of Gaussian, Inc. and that
 it will not use this program in any manner prohibited above.
 ---------------------------------------------------------------
  

 Cite this work as:
 Gaussian 09, Revision D.01,
 M. J. Frisch, G. W. Trucks, H. B. Schlegel, G. E. Scuseria, 
 M. A. Robb, J. R. Cheeseman, G. Scalmani, V. Barone, B. Mennucci, 
 G. A. Petersson, H. Nakatsuji, M. Caricato, X. Li, H. P. Hratchian, 
 A. F. Izmaylov, J. Bloino, G. Zheng, J. L. Sonnenberg, M. Hada, 
 M. Ehara, K. Toyota, R. Fukuda, J. Hasegawa, M. Ishida, T. Nakajima, 
 Y. Honda, O. Kitao, H. Nakai, T. Vreven, J. A. Montgomery, Jr., 
 J. E. Peralta, F. Ogliaro, M. Bearpark, J. J. Heyd, E. Brothers, 
 K. N. Kudin, V. N. Staroverov, T. Keith, R. Kobayashi, J. Normand, 
 K. Raghavachari, A. Rendell, J. C. Burant, S. S. Iyengar, J. Tomasi, 
 M. Cossi, N. Rega, J. M. Millam, M. Klene, J. E. Knox, J. B. Cross, 
 V. Bakken, C. Adamo, J. Jaramillo, R. Gomperts, R. E. Stratmann, 
 O. Yazyev, A. J. Austin, R. Cammi, C. Pomelli, J. W. Ochterski, 
 R. L. Martin, K. Morokuma, V. G. Zakrzewski, G. A. Voth, 
 P. Salvador, J. J. Dannenberg, S. Dapprich, A. D. Daniels, 
 O. Farkas, J. B. Foresman, J. V. Ortiz, J. Cioslowski, 
 and D. J. Fox, Gaussian, Inc., Wallingford CT, 2013.
 
 ******************************************
 Gaussian 09:  ES64L-G09RevD.01 24-Apr-2013
                10-Nov-2025 
 ******************************************
 ----------------------
 #p M062X/6-311++G(d,p)
 ----------------------
 1/38=1/1;
 2/12=2,17=6,18=5,40=1/2;
 3/5=4,6=6,7=1111,11=2,16=1,25=1,30=1,74=-55/1,2,3;
 4//1;
 5/5=2,38=5/2;
 6/7=2,8=2,9=2,10=2,28=1/1;
 99/5=1,9=1/99;
 Leave Link    1 at Mon Nov 10 19:49:45 2025, MaxMem=           0 cpu:         0.0
 (Enter /opt/programs/gaussian/g09/d_pgi133/l101.exe)
 --
 SP
 --
 Symbolic Z-matrix:
 Charge =  0 Multiplicity = 1
 C                     1.42311  -0.22398  -0.00363 
 H                     1.4496   -0.9309    0.8432 
 H                     2.09539  -0.62139  -0.78012 
 C                     0.00446  -0.13505  -0.5534 
 H                    -0.31308  -1.14403  -0.85334 
 H                    -0.00002   0.48589  -1.45655 
 C                    -0.99648   0.45147   0.44499 
 H                    -1.00046  -0.15027   1.36981 
 H                    -0.68995   1.46272   0.71896 
 O                     1.8216    1.07857   0.41244 
 H                     2.71268   1.01805   0.77826 
 O                    -2.30554   0.57001  -0.10054 
 H                    -2.61367  -0.3198   -0.31734 
 
 NAtoms=     13 NQM=       13 NQMF=       0 NMMI=      0 NMMIF=      0
                NMic=       0 NMicF=      0.
                    Isotopes and Nuclear Properties:
 (Nuclear quadrupole moments (NQMom) in fm**2, nuclear magnetic moments (NMagM)
  in nuclear magnetons)

  Atom         1           2           3           4           5           6           7           8           9          10
 IAtWgt=          12           1           1          12           1           1          12           1           1          16
 AtmWgt=  12.0000000   1.0078250   1.0078250  12.0000000   1.0078250   1.0078250  12.0000000   1.0078250   1.0078250  15.9949146
 NucSpn=           0           1           1           0           1           1           0           1           1           0
 AtZEff=   0.0000000   0.0000000   0.0000000   0.0000000   0.0000000   0.0000000   0.0000000   0.0000000   0.0000000   0.0000000
 NQMom=    0.0000000   0.0000000   0.0000000   0.0000000   0.0000000   0.0000000   0.0000000   0.0000000   0.0000000   0.0000000
 NMagM=    0.0000000   2.7928460   2.7928460   0.0000000   2.7928460   2.7928460   0.0000000   2.7928460   2.7928460   0.0000000
 AtZNuc=   6.0000000   1.0000000   1.0000000   6.0000000   1.0000000   1.0000000   6.0000000   1.0000000   1.0000000   8.0000000

  Atom        11          12          13
 IAtWgt=           1          16           1
 AtmWgt=   1.0078250  15.9949146   1.0078250
 NucSpn=           1           0           1
 AtZEff=   0.0000000   0.0000000   0.0000000
 NQMom=    0.0000000   0.0000000   0.0000000
 NMagM=    2.7928460   0.0000000   2.7928460
 AtZNuc=   1.0000000   8.0000000   1.0000000
 Leave Link  101 at Mon Nov 10 19:49:45 2025, MaxMem=    33554432 cpu:         0.0
 (Enter /opt/programs/gaussian/g09/d_pgi133/l202.exe)
                          Input orientation:                          
 ---------------------------------------------------------------------
 Center     Atomic      Atomic             Coordinates (Angstroms)
 Number     Number       Type             X           Y           Z
 ---------------------------------------------------------------------
      1          6           0        1.423105   -0.223980   -0.003629
      2          1           0        1.449599   -0.930901    0.843196
      3          1           0        2.095392   -0.621392   -0.780117
      4          6           0        0.004456   -0.135048   -0.553397
      5          1           0       -0.313078   -1.144025   -0.853336
      6          1           0       -0.000021    0.485886   -1.456549
      7          6           0       -0.996476    0.451465    0.444985
      8          1           0       -1.000463   -0.150266    1.369809
      9          1           0       -0.689952    1.462720    0.718956
     10          8           0        1.821598    1.078567    0.412437
     11          1           0        2.712684    1.018052    0.778257
     12          8           0       -2.305544    0.570010   -0.100541
     13          1           0       -2.613674   -0.319795   -0.317335
 ---------------------------------------------------------------------
                    Distance matrix (angstroms):
                    1          2          3          4          5
     1  C    0.000000
     2  H    1.103427   0.000000
     3  H    1.101290   1.774257   0.000000
     4  C    1.524047   2.161549   2.158691   0.000000
     5  H    2.140751   2.455743   2.465610   1.099466   0.000000
     6  H    2.154106   3.065536   2.464626   1.096021   1.765922
     7  C    2.551833   2.837744   3.494502   1.530565   2.167547
     8  H    2.786655   2.624789   3.798481   2.169980   2.530302
     9  H    2.798588   3.212870   3.787992   2.157301   3.067451
    10  O    1.424267   2.088516   2.094519   2.389080   3.331507
    11  H    1.953715   2.323364   2.344644   3.230703   4.061023
    12  O    3.813481   4.152646   4.609718   2.457292   2.733960
    13  H    4.050084   4.269715   4.741353   2.635235   2.501878
                    6          7          8          9         10
     6  H    0.000000
     7  C    2.147077   0.000000
     8  H    3.064943   1.103356   0.000000
     9  H    2.482545   1.091629   1.766848   0.000000
    10  O    2.676317   2.887188   3.223448   2.559182   0.000000
    11  H    3.554761   3.766956   3.937304   3.432081   0.965153
    12  O    2.676055   1.423134   2.093792   2.019565   4.189878
    13  H    2.962788   1.947127   2.340437   2.819923   4.707401
                   11         12         13
    11  H    0.000000
    12  O    5.114258   0.000000
    13  H    5.600022   0.966280   0.000000
 Stoichiometry    C3H8O2
 Framework group  C1[X(C3H8O2)]
 Deg. of freedom    33
 Full point group                 C1      NOp   1
 Largest Abelian subgroup         C1      NOp   1
 Largest concise Abelian subgroup C1      NOp   1
                         Standard orientation:                         
 ---------------------------------------------------------------------
 Center     Atomic      Atomic             Coordinates (Angstroms)
 Number     Number       Type             X           Y           Z
 ---------------------------------------------------------------------
      1          6           0       -1.400969    0.543643    0.210940
      2          1           0       -1.470756    0.632934    1.308533
      3          1           0       -2.017992    1.347335   -0.220569
      4          6           0        0.047924    0.721321   -0.227075
      5          1           0        0.397196    1.702187    0.126107
      6          1           0        0.100421    0.735681   -1.321744
      7          6           0        0.976499   -0.380078    0.289934
      8          1           0        0.930835   -0.422999    1.391509
      9          1           0        0.639806   -1.348342   -0.085241
     10          8           0       -1.842260   -0.739798   -0.221006
     11          1           0       -2.753561   -0.859429    0.073510
     12          8           0        2.315369   -0.223829   -0.166489
     13          1           0        2.648449    0.612335    0.185057
 ---------------------------------------------------------------------
 Rotational constants (GHZ):     13.0430286      2.4489268      2.2230942
 Leave Link  202 at Mon Nov 10 19:49:45 2025, MaxMem=    33554432 cpu:         0.0
 (Enter /opt/programs/gaussian/g09/d_pgi133/l301.exe)
 Standard basis: 6-311++G(d,p) (5D, 7F)
 Ernie: Thresh=  0.10000D-02 Tol=  0.10000D-05 Strict=F.
 There are   171 symmetry adapted cartesian basis functions of A   symmetry.
 There are   166 symmetry adapted basis functions of A   symmetry.
   166 basis functions,   252 primitive gaussians,   171 cartesian basis functions
    21 alpha electrons       21 beta electrons
       nuclear repulsion energy       187.9146971551 Hartrees.
 IExCor= 4336 DFT=T Ex+Corr=M062X ExCW=0 ScaHFX=  0.540000
 ScaDFX=  1.000000  1.000000  1.000000  1.000000 ScalE2=  1.000000  1.000000
 IRadAn=      0 IRanWt=     -1 IRanGd=            0 ICorTp=0 IEmpDi=  4
 NAtoms=   13 NActive=   13 NUniq=   13 SFac= 1.00D+00 NAtFMM=   60 NAOKFM=F Big=F
 Integral buffers will be    131072 words long.
 Raffenetti 2 integral format.
 Two-electron integral symmetry is turned on.
 Leave Link  301 at Mon Nov 10 19:49:45 2025, MaxMem=    33554432 cpu:         0.0
 (Enter /opt/programs/gaussian/g09/d_pgi133/l302.exe)
 NPDir=0 NMtPBC=     1 NCelOv=     1 NCel=       1 NClECP=     1 NCelD=      1
         NCelK=      1 NCelE2=     1 NClLst=     1 CellRange=     0.0.
 One-electron integrals computed using PRISM.
 NBasis=   166 RedAO= T EigKep=  3.76D-05  NBF=   166
 NBsUse=   166 1.00D-06 EigRej= -1.00D+00 NBFU=   166
 Precomputing XC quadrature grid using
 IXCGrd= 4 IRadAn=           0 IRanWt=          -1 IRanGd=           0 AccXCQ= 0.00D+00.
 Generated NRdTot=       0 NPtTot=           0 NUsed=           0 NTot=          32
 NSgBfM=   171   171   171   171   171 MxSgAt=    13 MxSgA2=    13.
 Leave Link  302 at Mon Nov 10 19:49:46 2025, MaxMem=    33554432 cpu:         0.1
 (Enter /opt/programs/gaussian/g09/d_pgi133/l303.exe)
 DipDrv:  MaxL=1.
 Leave Link  303 at Mon Nov 10 19:49:46 2025, MaxMem=    33554432 cpu:         0.0
 (Enter /opt/programs/gaussian/g09/d_pgi133/l401.exe)
 ExpMin= 3.60D-02 ExpMax= 8.59D+03 ExpMxC= 1.30D+03 IAcc=3 IRadAn=         5 AccDes= 0.00D+00
 Harris functional with IExCor= 1009 and IRadAn=       5 diagonalized for initial guess.
 HarFok:  IExCor= 1009 AccDes= 0.00D+00 IRadAn=         5 IDoV= 1 UseB2=F ITyADJ=14
 ICtDFT=  3500011 ScaDFX=  1.000000  1.000000  1.000000  1.000000
 FoFCou: FMM=F IPFlag=           0 FMFlag=      100000 FMFlg1=           0
         NFxFlg=           0 DoJE=T BraDBF=F KetDBF=T FulRan=T
         wScrn=  0.000000 ICntrl=     500 IOpCl=  0 I1Cent=   200000004 NGrid=           0
         NMat0=    1 NMatS0=      1 NMatT0=    0 NMatD0=    1 NMtDS0=    0 NMtDT0=    0
 Petite list used in FoFCou.
 Harris En= -269.444021337744    
 JPrj=0 DoOrth=F DoCkMO=F.
 Leave Link  401 at Mon Nov 10 19:49:47 2025, MaxMem=    33554432 cpu:         1.5
 (Enter /opt/programs/gaussian/g09/d_pgi133/l502.exe)
 Closed shell SCF:
 Using DIIS extrapolation, IDIIS=  1040.
 Integral symmetry usage will be decided dynamically.
 IVT=      108587 IEndB=      108587 NGot=    33554432 MDV=    33491898
 LenX=    33491898 LenY=    33462216
 Requested convergence on RMS density matrix=1.00D-08 within 128 cycles.
 Requested convergence on MAX density matrix=1.00D-06.
 Requested convergence on             energy=1.00D-06.
 No special actions if energy rises.
 Fock matrices will be formed incrementally for  20 cycles.

 Cycle   1  Pass 1  IDiag  1:
 FoFJK:  IHMeth= 1 ICntrl=       0 DoSepK=F KAlg= 0 I1Cent=   0 FoldK=F
 IRaf= 980000000 NMat=   1 IRICut=       1 DoRegI=T DoRafI=F ISym2E= 0.
 FoFCou: FMM=F IPFlag=           0 FMFlag=      100000 FMFlg1=           0
         NFxFlg=           0 DoJE=F BraDBF=F KetDBF=F FulRan=T
         wScrn=  0.000000 ICntrl=       0 IOpCl=  0 I1Cent=           0 NGrid=           0
         NMat0=    1 NMatS0=      1 NMatT0=    0 NMatD0=    1 NMtDS0=    0 NMtDT0=    0
 Symmetry not used in FoFCou.
 E= -269.360280135300    
 DIIS: error= 3.33D-02 at cycle   1 NSaved=   1.
 NSaved= 1 IEnMin= 1 EnMin= -269.360280135300     IErMin= 1 ErrMin= 3.33D-02
 ErrMax= 3.33D-02  0.00D+00 EMaxC= 1.00D-01 BMatC= 2.37D-01 BMatP= 2.37D-01
 IDIUse=3 WtCom= 6.67D-01 WtEn= 3.33D-01
 Coeff-Com:  0.100D+01
 Coeff-En:   0.100D+01
 Coeff:      0.100D+01
 Gap=     0.278 Goal=   None    Shift=    0.000
 GapD=    0.278 DampG=1.000 DampE=0.500 DampFc=0.5000 IDamp=-1.
 Damping current iteration by 5.00D-01
 RMSDP=6.84D-03 MaxDP=1.80D-01              OVMax= 1.33D-01

 Cycle   2  Pass 1  IDiag  1:
 RMSU=  3.41D-03    CP:  9.80D-01
 E= -269.441747524329     Delta-E=       -0.081467389028 Rises=F Damp=T
 DIIS: error= 7.66D-03 at cycle   2 NSaved=   2.
 NSaved= 2 IEnMin= 2 EnMin= -269.441747524329     IErMin= 2 ErrMin= 7.66D-03
 ErrMax= 7.66D-03  0.00D+00 EMaxC= 1.00D-01 BMatC= 1.54D-02 BMatP= 2.37D-01
 IDIUse=3 WtCom= 9.23D-01 WtEn= 7.66D-02
 Coeff-Com: -0.308D-01 0.103D+01
 Coeff-En:   0.000D+00 0.100D+01
 Coeff:     -0.285D-01 0.103D+01
 Gap=     0.343 Goal=   None    Shift=    0.000
 RMSDP=2.04D-03 MaxDP=7.27D-02 DE=-8.15D-02 OVMax= 7.72D-02

 Cycle   3  Pass 1  IDiag  1:
 RMSU=  1.99D-03    CP:  9.62D-01  9.01D-01
 E= -269.527935289832     Delta-E=       -0.086187765503 Rises=F Damp=F
 DIIS: error= 5.04D-03 at cycle   3 NSaved=   3.
 NSaved= 3 IEnMin= 3 EnMin= -269.527935289832     IErMin= 3 ErrMin= 5.04D-03
 ErrMax= 5.04D-03  0.00D+00 EMaxC= 1.00D-01 BMatC= 4.18D-03 BMatP= 1.54D-02
 IDIUse=3 WtCom= 9.50D-01 WtEn= 5.04D-02
 Coeff-Com: -0.764D-01 0.317D+00 0.759D+00
 Coeff-En:   0.000D+00 0.000D+00 0.100D+01
 Coeff:     -0.725D-01 0.301D+00 0.771D+00
 Gap=     0.337 Goal=   None    Shift=    0.000
 RMSDP=3.99D-04 MaxDP=9.62D-03 DE=-8.62D-02 OVMax= 1.26D-02

 Cycle   4  Pass 1  IDiag  1:
 RMSU=  3.35D-04    CP:  9.63D-01  9.64D-01  1.00D+00
 E= -269.530162449707     Delta-E=       -0.002227159875 Rises=F Damp=F
 DIIS: error= 1.94D-03 at cycle   4 NSaved=   4.
 NSaved= 4 IEnMin= 4 EnMin= -269.530162449707     IErMin= 4 ErrMin= 1.94D-03
 ErrMax= 1.94D-03  0.00D+00 EMaxC= 1.00D-01 BMatC= 7.86D-04 BMatP= 4.18D-03
 IDIUse=3 WtCom= 9.81D-01 WtEn= 1.94D-02
 Coeff-Com: -0.316D-01 0.848D-01 0.373D+00 0.573D+00
 Coeff-En:   0.000D+00 0.000D+00 0.110D+00 0.890D+00
 Coeff:     -0.310D-01 0.831D-01 0.368D+00 0.580D+00
 Gap=     0.334 Goal=   None    Shift=    0.000
 RMSDP=1.74D-04 MaxDP=5.88D-03 DE=-2.23D-03 OVMax= 4.75D-03

 Cycle   5  Pass 1  IDiag  1:
 RMSU=  1.08D-04    CP:  9.60D-01  9.48D-01  1.00D+00  6.47D-01
 E= -269.530795304519     Delta-E=       -0.000632854812 Rises=F Damp=F
 DIIS: error= 2.08D-04 at cycle   5 NSaved=   5.
 NSaved= 5 IEnMin= 5 EnMin= -269.530795304519     IErMin= 5 ErrMin= 2.08D-04
 ErrMax= 2.08D-04  0.00D+00 EMaxC= 1.00D-01 BMatC= 1.00D-05 BMatP= 7.86D-04
 IDIUse=3 WtCom= 9.98D-01 WtEn= 2.08D-03
 Coeff-Com: -0.383D-02 0.536D-02 0.523D-01 0.149D+00 0.797D+00
 Coeff-En:   0.000D+00 0.000D+00 0.000D+00 0.000D+00 0.100D+01
 Coeff:     -0.383D-02 0.535D-02 0.522D-01 0.149D+00 0.798D+00
 Gap=     0.334 Goal=   None    Shift=    0.000
 RMSDP=3.78D-05 MaxDP=1.66D-03 DE=-6.33D-04 OVMax= 5.92D-04

 Cycle   6  Pass 1  IDiag  1:
 RMSU=  2.55D-05    CP:  9.60D-01  9.43D-01  1.01D+00  6.94D-01  8.93D-01
 E= -269.530803607510     Delta-E=       -0.000008302991 Rises=F Damp=F
 DIIS: error= 2.14D-05 at cycle   6 NSaved=   6.
 NSaved= 6 IEnMin= 6 EnMin= -269.530803607510     IErMin= 6 ErrMin= 2.14D-05
 ErrMax= 2.14D-05  0.00D+00 EMaxC= 1.00D-01 BMatC= 1.40D-07 BMatP= 1.00D-05
 IDIUse=1 WtCom= 1.00D+00 WtEn= 0.00D+00
 Coeff-Com:  0.834D-03-0.221D-02-0.822D-02-0.796D-02 0.332D-01 0.984D+00
 Coeff:      0.834D-03-0.221D-02-0.822D-02-0.796D-02 0.332D-01 0.984D+00
 Gap=     0.335 Goal=   None    Shift=    0.000
 RMSDP=1.02D-05 MaxDP=4.61D-04 DE=-8.30D-06 OVMax= 1.42D-04

 Cycle   7  Pass 1  IDiag  1:
 RMSU=  4.90D-06    CP:  9.60D-01  9.41D-01  1.01D+00  6.97D-01  9.25D-01
                    CP:  1.11D+00
 E= -269.530803770322     Delta-E=       -0.000000162812 Rises=F Damp=F
 DIIS: error= 1.09D-05 at cycle   7 NSaved=   7.
 NSaved= 7 IEnMin= 7 EnMin= -269.530803770322     IErMin= 7 ErrMin= 1.09D-05
 ErrMax= 1.09D-05  0.00D+00 EMaxC= 1.00D-01 BMatC= 4.03D-08 BMatP= 1.40D-07
 IDIUse=1 WtCom= 1.00D+00 WtEn= 0.00D+00
 Coeff-Com:  0.551D-03-0.118D-02-0.625D-02-0.114D-01-0.316D-01 0.380D+00
 Coeff-Com:  0.670D+00
 Coeff:      0.551D-03-0.118D-02-0.625D-02-0.114D-01-0.316D-01 0.380D+00
 Coeff:      0.670D+00
 Gap=     0.335 Goal=   None    Shift=    0.000
 RMSDP=1.83D-06 MaxDP=4.88D-05 DE=-1.63D-07 OVMax= 4.28D-05

 Cycle   8  Pass 1  IDiag  1:
 RMSU=  9.71D-07    CP:  9.60D-01  9.41D-01  1.01D+00  6.98D-01  9.25D-01
                    CP:  1.15D+00  8.86D-01
 E= -269.530803801915     Delta-E=       -0.000000031592 Rises=F Damp=F
 DIIS: error= 3.62D-06 at cycle   8 NSaved=   8.
 NSaved= 8 IEnMin= 8 EnMin= -269.530803801915     IErMin= 8 ErrMin= 3.62D-06
 ErrMax= 3.62D-06  0.00D+00 EMaxC= 1.00D-01 BMatC= 4.57D-09 BMatP= 4.03D-08
 IDIUse=1 WtCom= 1.00D+00 WtEn= 0.00D+00
 Coeff-Com:  0.148D-03-0.289D-03-0.185D-02-0.395D-02-0.163D-01 0.716D-01
 Coeff-Com:  0.285D+00 0.666D+00
 Coeff:      0.148D-03-0.289D-03-0.185D-02-0.395D-02-0.163D-01 0.716D-01
 Coeff:      0.285D+00 0.666D+00
 Gap=     0.335 Goal=   None    Shift=    0.000
 RMSDP=7.56D-07 MaxDP=3.22D-05 DE=-3.16D-08 OVMax= 1.61D-05

 Cycle   9  Pass 1  IDiag  1:
 RMSU=  3.77D-07    CP:  9.60D-01  9.41D-01  1.01D+00  6.98D-01  9.26D-01
                    CP:  1.15D+00  9.68D-01  8.75D-01
 E= -269.530803805209     Delta-E=       -0.000000003295 Rises=F Damp=F
 DIIS: error= 8.30D-07 at cycle   9 NSaved=   9.
 NSaved= 9 IEnMin= 9 EnMin= -269.530803805209     IErMin= 9 ErrMin= 8.30D-07
 ErrMax= 8.30D-07  0.00D+00 EMaxC= 1.00D-01 BMatC= 2.41D-10 BMatP= 4.57D-09
 IDIUse=1 WtCom= 1.00D+00 WtEn= 0.00D+00
 Coeff-Com:  0.727D-06 0.357D-05-0.109D-03-0.360D-03-0.279D-02-0.690D-02
 Coeff-Com:  0.370D-01 0.211D+00 0.763D+00
 Coeff:      0.727D-06 0.357D-05-0.109D-03-0.360D-03-0.279D-02-0.690D-02
 Coeff:      0.370D-01 0.211D+00 0.763D+00
 Gap=     0.335 Goal=   None    Shift=    0.000
 RMSDP=1.49D-07 MaxDP=3.08D-06 DE=-3.29D-09 OVMax= 4.37D-06

 Cycle  10  Pass 1  IDiag  1:
 RMSU=  1.04D-07    CP:  9.60D-01  9.41D-01  1.01D+00  6.98D-01  9.26D-01
                    CP:  1.15D+00  9.83D-01  9.32D-01  1.02D+00
 E= -269.530803805411     Delta-E=       -0.000000000202 Rises=F Damp=F
 DIIS: error= 3.28D-07 at cycle  10 NSaved=  10.
 NSaved=10 IEnMin=10 EnMin= -269.530803805411     IErMin=10 ErrMin= 3.28D-07
 ErrMax= 3.28D-07  0.00D+00 EMaxC= 1.00D-01 BMatC= 3.16D-11 BMatP= 2.41D-10
 IDIUse=1 WtCom= 1.00D+00 WtEn= 0.00D+00
 Coeff-Com: -0.134D-04 0.279D-04 0.130D-03 0.236D-03 0.516D-03-0.904D-02
 Coeff-Com: -0.169D-01 0.323D-02 0.294D+00 0.728D+00
 Coeff:     -0.134D-04 0.279D-04 0.130D-03 0.236D-03 0.516D-03-0.904D-02
 Coeff:     -0.169D-01 0.323D-02 0.294D+00 0.728D+00
 Gap=     0.335 Goal=   None    Shift=    0.000
 RMSDP=4.88D-08 MaxDP=9.69D-07 DE=-2.02D-10 OVMax= 1.77D-06

 Cycle  11  Pass 1  IDiag  1:
 RMSU=  2.95D-08    CP:  9.60D-01  9.41D-01  1.01D+00  6.98D-01  9.26D-01
                    CP:  1.15D+00  9.89D-01  9.48D-01  1.07D+00  9.83D-01
 E= -269.530803805442     Delta-E=       -0.000000000031 Rises=F Damp=F
 DIIS: error= 5.27D-08 at cycle  11 NSaved=  11.
 NSaved=11 IEnMin=11 EnMin= -269.530803805442     IErMin=11 ErrMin= 5.27D-08
 ErrMax= 5.27D-08  0.00D+00 EMaxC= 1.00D-01 BMatC= 6.36D-13 BMatP= 3.16D-11
 IDIUse=1 WtCom= 1.00D+00 WtEn= 0.00D+00
 Coeff-Com: -0.119D-05 0.267D-05 0.218D-04 0.414D-04 0.195D-03-0.426D-03
 Coeff-Com: -0.396D-02-0.123D-01-0.114D-01 0.711D-01 0.957D+00
 Coeff:     -0.119D-05 0.267D-05 0.218D-04 0.414D-04 0.195D-03-0.426D-03
 Coeff:     -0.396D-02-0.123D-01-0.114D-01 0.711D-01 0.957D+00
 Gap=     0.335 Goal=   None    Shift=    0.000
 RMSDP=1.94D-08 MaxDP=7.88D-07 DE=-3.08D-11 OVMax= 6.33D-07

 Cycle  12  Pass 1  IDiag  1:
 RMSU=  8.53D-09    CP:  9.60D-01  9.41D-01  1.01D+00  6.98D-01  9.26D-01
                    CP:  1.15D+00  9.90D-01  9.52D-01  1.09D+00  1.04D+00
                    CP:  1.09D+00
 E= -269.530803805442     Delta-E=        0.000000000000 Rises=F Damp=F
 DIIS: error= 1.43D-08 at cycle  12 NSaved=  12.
 NSaved=12 IEnMin=11 EnMin= -269.530803805442     IErMin=12 ErrMin= 1.43D-08
 ErrMax= 1.43D-08  0.00D+00 EMaxC= 1.00D-01 BMatC= 4.68D-14 BMatP= 6.36D-13
 IDIUse=1 WtCom= 1.00D+00 WtEn= 0.00D+00
 Coeff-Com:  0.850D-06-0.165D-05-0.606D-05-0.124D-04-0.230D-04 0.526D-03
 Coeff-Com:  0.632D-03-0.187D-02-0.205D-01-0.369D-01 0.146D+00 0.913D+00
 Coeff:      0.850D-06-0.165D-05-0.606D-05-0.124D-04-0.230D-04 0.526D-03
 Coeff:      0.632D-03-0.187D-02-0.205D-01-0.369D-01 0.146D+00 0.913D+00
 Gap=     0.335 Goal=   None    Shift=    0.000
 RMSDP=3.85D-09 MaxDP=6.63D-08 DE= 2.27D-13 OVMax= 1.85D-07

 SCF Done:  E(RM062X) =  -269.530803805     A.U. after   12 cycles
            NFock= 12  Conv=0.39D-08     -V/T= 2.0039
 KE= 2.684935990720D+02 PE=-1.007502572279D+03 EE= 2.815634722466D+02
 Leave Link  502 at Mon Nov 10 19:50:12 2025, MaxMem=    33554432 cpu:        24.9
 (Enter /opt/programs/gaussian/g09/d_pgi133/l601.exe)
 Copying SCF densities to generalized density rwf, IOpCl= 0 IROHF=0.

 **********************************************************************

            Population analysis using the SCF density.

 **********************************************************************

 Orbital symmetries:
       Occupied  (A) (A) (A) (A) (A) (A) (A) (A) (A) (A) (A) (A)
                 (A) (A) (A) (A) (A) (A) (A) (A) (A)
       Virtual   (A) (A) (A) (A) (A) (A) (A) (A) (A) (A) (A) (A)
                 (A) (A) (A) (A) (A) (A) (A) (A) (A) (A) (A) (A)
                 (A) (A) (A) (A) (A) (A) (A) (A) (A) (A) (A) (A)
                 (A) (A) (A) (A) (A) (A) (A) (A) (A) (A) (A) (A)
                 (A) (A) (A) (A) (A) (A) (A) (A) (A) (A) (A) (A)
                 (A) (A) (A) (A) (A) (A) (A) (A) (A) (A) (A) (A)
                 (A) (A) (A) (A) (A) (A) (A) (A) (A) (A) (A) (A)
                 (A) (A) (A) (A) (A) (A) (A) (A) (A) (A) (A) (A)
                 (A) (A) (A) (A) (A) (A) (A) (A) (A) (A) (A) (A)
                 (A) (A) (A) (A) (A) (A) (A) (A) (A) (A) (A) (A)
                 (A) (A) (A) (A) (A) (A) (A) (A) (A) (A) (A) (A)
                 (A) (A) (A) (A) (A) (A) (A) (A) (A) (A) (A) (A)
                 (A)
 The electronic state is 1-A.
 Alpha  occ. eigenvalues --  -19.62974 -19.61916 -10.59421 -10.57887 -10.53810
 Alpha  occ. eigenvalues --   -1.15170  -1.13991  -0.87621  -0.76331  -0.68197
 Alpha  occ. eigenvalues --   -0.60741  -0.58708  -0.52886  -0.51334  -0.50312
 Alpha  occ. eigenvalues --   -0.45405  -0.43610  -0.42047  -0.38525  -0.36057
 Alpha  occ. eigenvalues --   -0.34327
 Alpha virt. eigenvalues --   -0.00874   0.00315   0.01513   0.02068   0.03620
 Alpha virt. eigenvalues --    0.04544   0.05191   0.05772   0.07966   0.09452
 Alpha virt. eigenvalues --    0.09595   0.11584   0.11898   0.12242   0.13040
 Alpha virt. eigenvalues --    0.13407   0.14268   0.15639   0.16564   0.17087
 Alpha virt. eigenvalues --    0.20224   0.21229   0.21316   0.22170   0.23425
 Alpha virt. eigenvalues --    0.24291   0.25945   0.26649   0.27456   0.28777
 Alpha virt. eigenvalues --    0.29361   0.30905   0.31774   0.32310   0.33442
 Alpha virt. eigenvalues --    0.34398   0.35524   0.38940   0.40454   0.41574
 Alpha virt. eigenvalues --    0.47180   0.49508   0.51157   0.52762   0.58059
 Alpha virt. eigenvalues --    0.59314   0.60498   0.63304   0.65827   0.68144
 Alpha virt. eigenvalues --    0.69802   0.70577   0.72278   0.74777   0.75870
 Alpha virt. eigenvalues --    0.77288   0.78536   0.93065   0.96603   1.01306
 Alpha virt. eigenvalues --    1.02920   1.05941   1.13196   1.14314   1.18331
 Alpha virt. eigenvalues --    1.21019   1.23395   1.27443   1.29605   1.34278
 Alpha virt. eigenvalues --    1.40102   1.43930   1.45611   1.47787   1.53889
 Alpha virt. eigenvalues --    1.55207   1.59278   1.60788   1.62022   1.63841
 Alpha virt. eigenvalues --    1.65113   1.65826   1.69178   1.70495   1.74951
 Alpha virt. eigenvalues --    1.76007   1.80822   1.83136   1.85544   1.87970
 Alpha virt. eigenvalues --    1.94144   2.02649   2.04407   2.08364   2.11682
 Alpha virt. eigenvalues --    2.14850   2.17732   2.25186   2.29580   2.31599
 Alpha virt. eigenvalues --    2.36784   2.46738   2.51684   2.53773   2.54692
 Alpha virt. eigenvalues --    2.57561   2.58218   2.63948   2.65717   2.67481
 Alpha virt. eigenvalues --    2.72685   2.77874   2.81318   2.89631   2.91526
 Alpha virt. eigenvalues --    2.98612   3.02152   3.11600   3.18608   3.19963
 Alpha virt. eigenvalues --    3.25599   3.27437   3.33278   3.37499   3.44607
 Alpha virt. eigenvalues --    3.80593   3.82840   3.85263   3.92253   3.95534
 Alpha virt. eigenvalues --    4.04021   4.05973   4.17556   4.34200   5.16792
 Alpha virt. eigenvalues --    5.19744   5.49665   5.50451   5.73700   5.74542
 Alpha virt. eigenvalues --   23.89860  23.93010  23.98101  50.01844  50.03675
          Condensed to atoms (all electrons):
               1          2          3          4          5          6
     1  C    5.523228   0.376959   0.394435   0.065448  -0.006394  -0.095384
     2  H    0.376959   0.670675  -0.092394  -0.033176  -0.018976   0.016568
     3  H    0.394435  -0.092394   0.648557  -0.025809   0.010771  -0.022955
     4  C    0.065448  -0.033176  -0.025809   5.703945   0.282768   0.518411
     5  H   -0.006394  -0.018976   0.010771   0.282768   0.624265  -0.064313
     6  H   -0.095384   0.016568  -0.022955   0.518411  -0.064313   0.521297
     7  C   -0.039988  -0.007424  -0.010270  -0.096577   0.047210  -0.076437
     8  H   -0.014468   0.000909   0.001365   0.138658  -0.043199   0.015217
     9  H   -0.013211   0.001232   0.001090  -0.103580   0.020924  -0.017679
    10  O    0.159277  -0.066278  -0.053806  -0.077276   0.029550  -0.022731
    11  H    0.024077  -0.008056  -0.008048  -0.016637  -0.002377   0.003685
    12  O    0.027987  -0.000415   0.000133  -0.045671  -0.023673   0.003324
    13  H    0.006539   0.001870  -0.001040  -0.018450   0.012138  -0.005198
               7          8          9         10         11         12
     1  C   -0.039988  -0.014468  -0.013211   0.159277   0.024077   0.027987
     2  H   -0.007424   0.000909   0.001232  -0.066278  -0.008056  -0.000415
     3  H   -0.010270   0.001365   0.001090  -0.053806  -0.008048   0.000133
     4  C   -0.096577   0.138658  -0.103580  -0.077276  -0.016637  -0.045671
     5  H    0.047210  -0.043199   0.020924   0.029550  -0.002377  -0.023673
     6  H   -0.076437   0.015217  -0.017679  -0.022731   0.003685   0.003324
     7  C    5.654706   0.202231   0.483368  -0.044795   0.008586   0.195018
     8  H    0.202231   0.690753  -0.081722  -0.022167   0.000182  -0.020734
     9  H    0.483368  -0.081722   0.547120   0.037214  -0.002563  -0.088528
    10  O   -0.044795  -0.022167   0.037214   8.120869   0.218266  -0.003499
    11  H    0.008586   0.000182  -0.002563   0.218266   0.516025  -0.000116
    12  O    0.195018  -0.020734  -0.088528  -0.003499  -0.000116   7.974383
    13  H   -0.017671  -0.024307   0.021003   0.000238   0.000110   0.246397
              13
     1  C    0.006539
     2  H    0.001870
     3  H   -0.001040
     4  C   -0.018450
     5  H    0.012138
     6  H   -0.005198
     7  C   -0.017671
     8  H   -0.024307
     9  H    0.021003
    10  O    0.000238
    11  H    0.000110
    12  O    0.246397
    13  H    0.533853
 Mulliken charges:
               1
     1  C   -0.408503
     2  H    0.158505
     3  H    0.157972
     4  C   -0.292055
     5  H    0.131305
     6  H    0.226197
     7  C   -0.297954
     8  H    0.157282
     9  H    0.195332
    10  O   -0.274862
    11  H    0.266866
    12  O   -0.264604
    13  H    0.244519
 Sum of Mulliken charges =   0.00000
 Mulliken charges with hydrogens summed into heavy atoms:
               1
     1  C   -0.092026
     4  C    0.065447
     7  C    0.054659
    10  O   -0.007995
    12  O   -0.020085
 Electronic spatial extent (au):  <R**2>=            556.5794
 Charge=              0.0000 electrons
 Dipole moment (field-independent basis, Debye):
    X=             -2.0793    Y=              2.2771    Z=              1.8325  Tot=              3.5870
 Quadrupole moment (field-independent basis, Debye-Ang):
   XX=            -29.3727   YY=            -31.7323   ZZ=            -32.6824
   XY=              3.5714   XZ=              0.5678   YZ=             -0.4393
 Traceless Quadrupole moment (field-independent basis, Debye-Ang):
   XX=              1.8897   YY=             -0.4698   ZZ=             -1.4199
   XY=              3.5714   XZ=              0.5678   YZ=             -0.4393
 Octapole moment (field-independent basis, Debye-Ang**2):
  XXX=            -28.7607  YYY=             -2.3095  ZZZ=              0.1873  XYY=              1.4513
  XXY=              7.6916  XXZ=              9.6448  XZZ=              0.3530  YZZ=             -0.3213
  YYZ=              0.0527  XYZ=              2.3511
 Hexadecapole moment (field-independent basis, Debye-Ang**3):
 XXXX=           -431.1638 YYYY=           -119.5038 ZZZZ=            -64.7746 XXXY=             58.9128
 XXXZ=              5.9528 YYYX=              7.2377 YYYZ=              1.8226 ZZZX=              0.1793
 ZZZY=             -0.2716 XXYY=            -95.1483 XXZZ=            -99.4214 YYZZ=            -32.5105
 XXYZ=             -2.0627 YYXZ=              0.3976 ZZXY=              1.0146
 N-N= 1.879146971551D+02 E-N=-1.007502573015D+03  KE= 2.684935990720D+02
 No NMR shielding tensors so no spin-rotation constants.
 Leave Link  601 at Mon Nov 10 19:50:12 2025, MaxMem=    33554432 cpu:         0.0
 (Enter /opt/programs/gaussian/g09/d_pgi133/l9999.exe)
 1\1\GINC-EXADE5\SP\RM062X\6-311++G(d,p)\C3H8O2\APINTO\10-Nov-2025\0\\#
 p M062X/6-311++G(d,p)\\SP\\0,1\C,0,1.423105,-0.22398,-0.003629\H,0,1.4
 49599,-0.930901,0.843196\H,0,2.095392,-0.621392,-0.780117\C,0,0.004456
 ,-0.135048,-0.553397\H,0,-0.313078,-1.144025,-0.853336\H,0,-0.000021,0
 .485886,-1.456549\C,0,-0.996476,0.451465,0.444985\H,0,-1.000463,-0.150
 266,1.369809\H,0,-0.689952,1.46272,0.718956\O,0,1.821598,1.078567,0.41
 2437\H,0,2.712684,1.018052,0.778257\O,0,-2.305544,0.57001,-0.100541\H,
 0,-2.613674,-0.319795,-0.317335\\Version=ES64L-G09RevD.01\State=1-A\HF
 =-269.5308038\RMSD=3.851e-09\Dipole=0.827515,-1.136663,0.1215627\Quadr
 upole=1.1842101,-0.8284614,-0.3557487,2.4067061,1.2921319,0.6089142\PG
 =C01 [X(C3H8O2)]\\@


 THERE ARE PEOPLE SO ADDICTED TO EXAGERATING THEY
 CAN'T TELL THE TRUTH WITHOUT LYING. -- FORTUNE COOKIE
 Job cpu time:       0 days  0 hours  0 minutes 26.5 seconds.
 File lengths (MBytes):  RWF=     16 Int=      0 D2E=      0 Chk=      2 Scr=      1
 Normal termination of Gaussian 09 at Mon Nov 10 19:50:12 2025.
