 Entering Gaussian System, Link 0=g09
 Input=xbp.com
 Output=xbp.log
 Initial command:
 /opt/programs/gaussian/g09/d_pgi133/l1.exe "/scratch/users/apinto/lixo/Gau-1270631.inp" -scrdir="/scratch/users/apinto/lixo/"
 Entering Link 1 = /opt/programs/gaussian/g09/d_pgi133/l1.exe PID=   1270633.
  
 Copyright (c) 1988,1990,1992,1993,1995,1998,2003,2009,2013,
            Gaussian, Inc.  All Rights Reserved.
  
 This is part of the Gaussian(R) 09 program.  It is based on
 the Gaussian(R) 03 system (copyright 2003, Gaussian, Inc.),
 the Gaussian(R) 98 system (copyright 1998, Gaussian, Inc.),
 the Gaussian(R) 94 system (copyright 1995, Gaussian, Inc.),
 the Gaussian 92(TM) system (copyright 1992, Gaussian, Inc.),
 the Gaussian 90(TM) system (copyright 1990, Gaussian, Inc.),
 the Gaussian 88(TM) system (copyright 1988, Gaussian, Inc.),
 the Gaussian 86(TM) system (copyright 1986, Carnegie Mellon
 University), and the Gaussian 82(TM) system (copyright 1983,
 Carnegie Mellon University). Gaussian is a federally registered
 trademark of Gaussian, Inc.
  
 This software contains proprietary and confidential information,
 including trade secrets, belonging to Gaussian, Inc.
  
 This software is provided under written license and may be
 used, copied, transmitted, or stored only in accord with that
 written license.
  
 The following legend is applicable only to US Government
 contracts under FAR:
  
                    RESTRICTED RIGHTS LEGEND
  
 Use, reproduction and disclosure by the US Government is
 subject to restrictions as set forth in subparagraphs (a)
 and (c) of the Commercial Computer Software - Restricted
 Rights clause in FAR 52.227-19.
  
 Gaussian, Inc.
 340 Quinnipiac St., Bldg. 40, Wallingford CT 06492
  
  
 ---------------------------------------------------------------
 Warning -- This program may not be used in any manner that
 competes with the business of Gaussian, Inc. or will provide
 assistance to any competitor of Gaussian, Inc.  The licensee
 of this program is prohibited from giving any competitor of
 Gaussian, Inc. access to this program.  By using this program,
 the user acknowledges that Gaussian, Inc. is engaged in the
 business of creating and licensing software in the field of
 computational chemistry and represents and warrants to the
 licensee that it is not a competitor of Gaussian, Inc. and that
 it will not use this program in any manner prohibited above.
 ---------------------------------------------------------------
  

 Cite this work as:
 Gaussian 09, Revision D.01,
 M. J. Frisch, G. W. Trucks, H. B. Schlegel, G. E. Scuseria, 
 M. A. Robb, J. R. Cheeseman, G. Scalmani, V. Barone, B. Mennucci, 
 G. A. Petersson, H. Nakatsuji, M. Caricato, X. Li, H. P. Hratchian, 
 A. F. Izmaylov, J. Bloino, G. Zheng, J. L. Sonnenberg, M. Hada, 
 M. Ehara, K. Toyota, R. Fukuda, J. Hasegawa, M. Ishida, T. Nakajima, 
 Y. Honda, O. Kitao, H. Nakai, T. Vreven, J. A. Montgomery, Jr., 
 J. E. Peralta, F. Ogliaro, M. Bearpark, J. J. Heyd, E. Brothers, 
 K. N. Kudin, V. N. Staroverov, T. Keith, R. Kobayashi, J. Normand, 
 K. Raghavachari, A. Rendell, J. C. Burant, S. S. Iyengar, J. Tomasi, 
 M. Cossi, N. Rega, J. M. Millam, M. Klene, J. E. Knox, J. B. Cross, 
 V. Bakken, C. Adamo, J. Jaramillo, R. Gomperts, R. E. Stratmann, 
 O. Yazyev, A. J. Austin, R. Cammi, C. Pomelli, J. W. Ochterski, 
 R. L. Martin, K. Morokuma, V. G. Zakrzewski, G. A. Voth, 
 P. Salvador, J. J. Dannenberg, S. Dapprich, A. D. Daniels, 
 O. Farkas, J. B. Foresman, J. V. Ortiz, J. Cioslowski, 
 and D. J. Fox, Gaussian, Inc., Wallingford CT, 2013.
 
 ******************************************
 Gaussian 09:  ES64L-G09RevD.01 24-Apr-2013
                10-Nov-2025 
 ******************************************
 ----------------------
 #p M062X/6-311++G(d,p)
 ----------------------
 1/38=1/1;
 2/12=2,17=6,18=5,40=1/2;
 3/5=4,6=6,7=1111,11=2,16=1,25=1,30=1,74=-55/1,2,3;
 4//1;
 5/5=2,38=5/2;
 6/7=2,8=2,9=2,10=2,28=1/1;
 99/5=1,9=1/99;
 Leave Link    1 at Mon Nov 10 19:50:12 2025, MaxMem=           0 cpu:         0.0
 (Enter /opt/programs/gaussian/g09/d_pgi133/l101.exe)
 --
 SP
 --
 Symbolic Z-matrix:
 Charge =  0 Multiplicity = 1
 C                     1.42779  -0.22591  -0.01519 
 H                     1.47937  -0.98244   0.78627 
 H                     2.10855  -0.55335  -0.81615 
 C                     0.00213  -0.15031  -0.55369 
 H                    -0.31882  -1.16637  -0.8235 
 H                    -0.01499   0.44663  -1.47284 
 C                    -0.98961   0.47034   0.43387 
 H                    -0.98932  -0.09858   1.37907 
 H                    -0.67953   1.48923   0.67141 
 O                     1.78799   1.05786   0.48568 
 H                     2.69107   1.00642   0.82216 
 O                    -2.3018    0.57216  -0.10834 
 H                    -2.61522  -0.32438  -0.28603 
 
 NAtoms=     13 NQM=       13 NQMF=       0 NMMI=      0 NMMIF=      0
                NMic=       0 NMicF=      0.
                    Isotopes and Nuclear Properties:
 (Nuclear quadrupole moments (NQMom) in fm**2, nuclear magnetic moments (NMagM)
  in nuclear magnetons)

  Atom         1           2           3           4           5           6           7           8           9          10
 IAtWgt=          12           1           1          12           1           1          12           1           1          16
 AtmWgt=  12.0000000   1.0078250   1.0078250  12.0000000   1.0078250   1.0078250  12.0000000   1.0078250   1.0078250  15.9949146
 NucSpn=           0           1           1           0           1           1           0           1           1           0
 AtZEff=   0.0000000   0.0000000   0.0000000   0.0000000   0.0000000   0.0000000   0.0000000   0.0000000   0.0000000   0.0000000
 NQMom=    0.0000000   0.0000000   0.0000000   0.0000000   0.0000000   0.0000000   0.0000000   0.0000000   0.0000000   0.0000000
 NMagM=    0.0000000   2.7928460   2.7928460   0.0000000   2.7928460   2.7928460   0.0000000   2.7928460   2.7928460   0.0000000
 AtZNuc=   6.0000000   1.0000000   1.0000000   6.0000000   1.0000000   1.0000000   6.0000000   1.0000000   1.0000000   8.0000000

  Atom        11          12          13
 IAtWgt=           1          16           1
 AtmWgt=   1.0078250  15.9949146   1.0078250
 NucSpn=           1           0           1
 AtZEff=   0.0000000   0.0000000   0.0000000
 NQMom=    0.0000000   0.0000000   0.0000000
 NMagM=    2.7928460   0.0000000   2.7928460
 AtZNuc=   1.0000000   8.0000000   1.0000000
 Leave Link  101 at Mon Nov 10 19:50:12 2025, MaxMem=    33554432 cpu:         0.0
 (Enter /opt/programs/gaussian/g09/d_pgi133/l202.exe)
                          Input orientation:                          
 ---------------------------------------------------------------------
 Center     Atomic      Atomic             Coordinates (Angstroms)
 Number     Number       Type             X           Y           Z
 ---------------------------------------------------------------------
      1          6           0        1.427789   -0.225907   -0.015189
      2          1           0        1.479372   -0.982442    0.786266
      3          1           0        2.108554   -0.553352   -0.816146
      4          6           0        0.002127   -0.150314   -0.553686
      5          1           0       -0.318822   -1.166366   -0.823496
      6          1           0       -0.014985    0.446625   -1.472835
      7          6           0       -0.989610    0.470336    0.433874
      8          1           0       -0.989316   -0.098577    1.379073
      9          1           0       -0.679528    1.489228    0.671405
     10          8           0        1.787988    1.057857    0.485684
     11          1           0        2.691074    1.006415    0.822155
     12          8           0       -2.301796    0.572164   -0.108338
     13          1           0       -2.615221   -0.324376   -0.286033
 ---------------------------------------------------------------------
                    Distance matrix (angstroms):
                    1          2          3          4          5
     1  C    0.000000
     2  H    1.103330   0.000000
     3  H    1.100997   1.774179   0.000000
     4  C    1.525846   2.161056   2.160639   0.000000
     5  H    2.142072   2.420468   2.503596   1.099167   0.000000
     6  H    2.158386   3.062495   2.437337   1.096113   1.765134
     7  C    2.555431   2.886281   3.494153   1.531020   2.170191
     8  H    2.793309   2.688319   3.823952   2.172831   2.537922
     9  H    2.802478   3.283778   3.762757   2.157220   3.068716
    10  O    1.424313   2.085285   2.096072   2.393589   3.331632
    11  H    1.953369   2.329176   2.335858   3.234408   4.060618
    12  O    3.815154   4.185015   4.606405   2.455274   2.732421
    13  H    4.053268   4.283523   4.758939   2.636749   2.504249
                    6          7          8          9         10
     6  H    0.000000
     7  C    2.141494   0.000000
     8  H    3.062670   1.103206   0.000000
     9  H    2.475157   1.091198   1.765754   0.000000
    10  O    2.731321   2.839527   3.138296   2.511814   0.000000
    11  H    3.592088   3.739730   3.882839   3.408342   0.965103
    12  O    2.665918   1.423445   2.094013   2.020089   4.161141
    13  H    2.960434   1.947420   2.338190   2.820063   4.679141
                   11         12         13
    11  H    0.000000
    12  O    5.097366   0.000000
    13  H    5.581743   0.966227   0.000000
 Stoichiometry    C3H8O2
 Framework group  C1[X(C3H8O2)]
 Deg. of freedom    33
 Full point group                 C1      NOp   1
 Largest Abelian subgroup         C1      NOp   1
 Largest concise Abelian subgroup C1      NOp   1
                         Standard orientation:                         
 ---------------------------------------------------------------------
 Center     Atomic      Atomic             Coordinates (Angstroms)
 Number     Number       Type             X           Y           Z
 ---------------------------------------------------------------------
      1          6           0       -1.410072    0.551394    0.190255
      2          1           0       -1.515074    0.680565    1.280955
      3          1           0       -2.027862    1.325813   -0.290165
      4          6           0        0.050725    0.741896   -0.207223
      5          1           0        0.397734    1.700360    0.203994
      6          1           0        0.131112    0.812488   -1.298103
      7          6           0        0.962880   -0.394112    0.263395
      8          1           0        0.897155   -0.503533    1.359191
      9          1           0        0.629058   -1.336101   -0.174706
     10          8           0       -1.815070   -0.757440   -0.199099
     11          1           0       -2.740046   -0.872494    0.051112
     12          8           0        2.310598   -0.216755   -0.158973
     13          1           0        2.642502    0.591394    0.253737
 ---------------------------------------------------------------------
 Rotational constants (GHZ):     12.8934092      2.4804450      2.2312848
 Leave Link  202 at Mon Nov 10 19:50:12 2025, MaxMem=    33554432 cpu:         0.0
 (Enter /opt/programs/gaussian/g09/d_pgi133/l301.exe)
 Standard basis: 6-311++G(d,p) (5D, 7F)
 Ernie: Thresh=  0.10000D-02 Tol=  0.10000D-05 Strict=F.
 There are   171 symmetry adapted cartesian basis functions of A   symmetry.
 There are   166 symmetry adapted basis functions of A   symmetry.
   166 basis functions,   252 primitive gaussians,   171 cartesian basis functions
    21 alpha electrons       21 beta electrons
       nuclear repulsion energy       188.0895510066 Hartrees.
 IExCor= 4336 DFT=T Ex+Corr=M062X ExCW=0 ScaHFX=  0.540000
 ScaDFX=  1.000000  1.000000  1.000000  1.000000 ScalE2=  1.000000  1.000000
 IRadAn=      0 IRanWt=     -1 IRanGd=            0 ICorTp=0 IEmpDi=  4
 NAtoms=   13 NActive=   13 NUniq=   13 SFac= 1.00D+00 NAtFMM=   60 NAOKFM=F Big=F
 Integral buffers will be    131072 words long.
 Raffenetti 2 integral format.
 Two-electron integral symmetry is turned on.
 Leave Link  301 at Mon Nov 10 19:50:12 2025, MaxMem=    33554432 cpu:         0.0
 (Enter /opt/programs/gaussian/g09/d_pgi133/l302.exe)
 NPDir=0 NMtPBC=     1 NCelOv=     1 NCel=       1 NClECP=     1 NCelD=      1
         NCelK=      1 NCelE2=     1 NClLst=     1 CellRange=     0.0.
 One-electron integrals computed using PRISM.
 NBasis=   166 RedAO= T EigKep=  3.83D-05  NBF=   166
 NBsUse=   166 1.00D-06 EigRej= -1.00D+00 NBFU=   166
 Precomputing XC quadrature grid using
 IXCGrd= 4 IRadAn=           0 IRanWt=          -1 IRanGd=           0 AccXCQ= 0.00D+00.
 Generated NRdTot=       0 NPtTot=           0 NUsed=           0 NTot=          32
 NSgBfM=   171   171   171   171   171 MxSgAt=    13 MxSgA2=    13.
 Leave Link  302 at Mon Nov 10 19:50:12 2025, MaxMem=    33554432 cpu:         0.1
 (Enter /opt/programs/gaussian/g09/d_pgi133/l303.exe)
 DipDrv:  MaxL=1.
 Leave Link  303 at Mon Nov 10 19:50:12 2025, MaxMem=    33554432 cpu:         0.0
 (Enter /opt/programs/gaussian/g09/d_pgi133/l401.exe)
 ExpMin= 3.60D-02 ExpMax= 8.59D+03 ExpMxC= 1.30D+03 IAcc=3 IRadAn=         5 AccDes= 0.00D+00
 Harris functional with IExCor= 1009 and IRadAn=       5 diagonalized for initial guess.
 HarFok:  IExCor= 1009 AccDes= 0.00D+00 IRadAn=         5 IDoV= 1 UseB2=F ITyADJ=14
 ICtDFT=  3500011 ScaDFX=  1.000000  1.000000  1.000000  1.000000
 FoFCou: FMM=F IPFlag=           0 FMFlag=      100000 FMFlg1=           0
         NFxFlg=           0 DoJE=T BraDBF=F KetDBF=T FulRan=T
         wScrn=  0.000000 ICntrl=     500 IOpCl=  0 I1Cent=   200000004 NGrid=           0
         NMat0=    1 NMatS0=      1 NMatT0=    0 NMatD0=    1 NMtDS0=    0 NMtDT0=    0
 Petite list used in FoFCou.
 Harris En= -269.443584082475    
 JPrj=0 DoOrth=F DoCkMO=F.
 Leave Link  401 at Mon Nov 10 19:50:14 2025, MaxMem=    33554432 cpu:         1.5
 (Enter /opt/programs/gaussian/g09/d_pgi133/l502.exe)
 Closed shell SCF:
 Using DIIS extrapolation, IDIIS=  1040.
 Integral symmetry usage will be decided dynamically.
 IVT=      108587 IEndB=      108587 NGot=    33554432 MDV=    33491898
 LenX=    33491898 LenY=    33462216
 Requested convergence on RMS density matrix=1.00D-08 within 128 cycles.
 Requested convergence on MAX density matrix=1.00D-06.
 Requested convergence on             energy=1.00D-06.
 No special actions if energy rises.
 Fock matrices will be formed incrementally for  20 cycles.

 Cycle   1  Pass 1  IDiag  1:
 FoFJK:  IHMeth= 1 ICntrl=       0 DoSepK=F KAlg= 0 I1Cent=   0 FoldK=F
 IRaf= 980000000 NMat=   1 IRICut=       1 DoRegI=T DoRafI=F ISym2E= 0.
 FoFCou: FMM=F IPFlag=           0 FMFlag=      100000 FMFlg1=           0
         NFxFlg=           0 DoJE=F BraDBF=F KetDBF=F FulRan=T
         wScrn=  0.000000 ICntrl=       0 IOpCl=  0 I1Cent=           0 NGrid=           0
         NMat0=    1 NMatS0=      1 NMatT0=    0 NMatD0=    1 NMtDS0=    0 NMtDT0=    0
 Symmetry not used in FoFCou.
 E= -269.360185833309    
 DIIS: error= 3.38D-02 at cycle   1 NSaved=   1.
 NSaved= 1 IEnMin= 1 EnMin= -269.360185833309     IErMin= 1 ErrMin= 3.38D-02
 ErrMax= 3.38D-02  0.00D+00 EMaxC= 1.00D-01 BMatC= 2.36D-01 BMatP= 2.36D-01
 IDIUse=3 WtCom= 6.62D-01 WtEn= 3.38D-01
 Coeff-Com:  0.100D+01
 Coeff-En:   0.100D+01
 Coeff:      0.100D+01
 Gap=     0.280 Goal=   None    Shift=    0.000
 GapD=    0.280 DampG=1.000 DampE=0.500 DampFc=0.5000 IDamp=-1.
 Damping current iteration by 5.00D-01
 RMSDP=6.81D-03 MaxDP=1.90D-01              OVMax= 1.33D-01

 Cycle   2  Pass 1  IDiag  1:
 RMSU=  3.39D-03    CP:  9.79D-01
 E= -269.441535534726     Delta-E=       -0.081349701417 Rises=F Damp=T
 DIIS: error= 7.27D-03 at cycle   2 NSaved=   2.
 NSaved= 2 IEnMin= 2 EnMin= -269.441535534726     IErMin= 2 ErrMin= 7.27D-03
 ErrMax= 7.27D-03  0.00D+00 EMaxC= 1.00D-01 BMatC= 1.54D-02 BMatP= 2.36D-01
 IDIUse=3 WtCom= 9.27D-01 WtEn= 7.27D-02
 Coeff-Com: -0.313D-01 0.103D+01
 Coeff-En:   0.000D+00 0.100D+01
 Coeff:     -0.290D-01 0.103D+01
 Gap=     0.343 Goal=   None    Shift=    0.000
 RMSDP=1.99D-03 MaxDP=6.50D-02 DE=-8.13D-02 OVMax= 7.73D-02

 Cycle   3  Pass 1  IDiag  1:
 RMSU=  1.95D-03    CP:  9.62D-01  9.09D-01
 E= -269.527559516233     Delta-E=       -0.086023981507 Rises=F Damp=F
 DIIS: error= 5.09D-03 at cycle   3 NSaved=   3.
 NSaved= 3 IEnMin= 3 EnMin= -269.527559516233     IErMin= 3 ErrMin= 5.09D-03
 ErrMax= 5.09D-03  0.00D+00 EMaxC= 1.00D-01 BMatC= 4.16D-03 BMatP= 1.54D-02
 IDIUse=3 WtCom= 9.49D-01 WtEn= 5.09D-02
 Coeff-Com: -0.767D-01 0.317D+00 0.759D+00
 Coeff-En:   0.000D+00 0.000D+00 0.100D+01
 Coeff:     -0.728D-01 0.301D+00 0.772D+00
 Gap=     0.336 Goal=   None    Shift=    0.000
 RMSDP=3.99D-04 MaxDP=1.02D-02 DE=-8.60D-02 OVMax= 1.27D-02

 Cycle   4  Pass 1  IDiag  1:
 RMSU=  3.33D-04    CP:  9.62D-01  9.74D-01  1.00D+00
 E= -269.529784062871     Delta-E=       -0.002224546638 Rises=F Damp=F
 DIIS: error= 1.92D-03 at cycle   4 NSaved=   4.
 NSaved= 4 IEnMin= 4 EnMin= -269.529784062871     IErMin= 4 ErrMin= 1.92D-03
 ErrMax= 1.92D-03  0.00D+00 EMaxC= 1.00D-01 BMatC= 7.80D-04 BMatP= 4.16D-03
 IDIUse=3 WtCom= 9.81D-01 WtEn= 1.92D-02
 Coeff-Com: -0.317D-01 0.850D-01 0.373D+00 0.573D+00
 Coeff-En:   0.000D+00 0.000D+00 0.108D+00 0.892D+00
 Coeff:     -0.310D-01 0.834D-01 0.368D+00 0.579D+00
 Gap=     0.334 Goal=   None    Shift=    0.000
 RMSDP=1.70D-04 MaxDP=5.38D-03 DE=-2.22D-03 OVMax= 4.74D-03

 Cycle   5  Pass 1  IDiag  1:
 RMSU=  1.05D-04    CP:  9.60D-01  9.57D-01  1.00D+00  6.50D-01
 E= -269.530410823492     Delta-E=       -0.000626760621 Rises=F Damp=F
 DIIS: error= 2.17D-04 at cycle   5 NSaved=   5.
 NSaved= 5 IEnMin= 5 EnMin= -269.530410823492     IErMin= 5 ErrMin= 2.17D-04
 ErrMax= 2.17D-04  0.00D+00 EMaxC= 1.00D-01 BMatC= 1.02D-05 BMatP= 7.80D-04
 IDIUse=3 WtCom= 9.98D-01 WtEn= 2.17D-03
 Coeff-Com: -0.386D-02 0.542D-02 0.526D-01 0.150D+00 0.796D+00
 Coeff-En:   0.000D+00 0.000D+00 0.000D+00 0.000D+00 0.100D+01
 Coeff:     -0.385D-02 0.541D-02 0.524D-01 0.150D+00 0.796D+00
 Gap=     0.334 Goal=   None    Shift=    0.000
 RMSDP=3.67D-05 MaxDP=1.38D-03 DE=-6.27D-04 OVMax= 5.92D-04

 Cycle   6  Pass 1  IDiag  1:
 RMSU=  2.55D-05    CP:  9.60D-01  9.53D-01  1.01D+00  6.93D-01  8.96D-01
 E= -269.530419221768     Delta-E=       -0.000008398275 Rises=F Damp=F
 DIIS: error= 2.05D-05 at cycle   6 NSaved=   6.
 NSaved= 6 IEnMin= 6 EnMin= -269.530419221768     IErMin= 6 ErrMin= 2.05D-05
 ErrMax= 2.05D-05  0.00D+00 EMaxC= 1.00D-01 BMatC= 1.35D-07 BMatP= 1.02D-05
 IDIUse=1 WtCom= 1.00D+00 WtEn= 0.00D+00
 Coeff-Com:  0.858D-03-0.225D-02-0.852D-02-0.882D-02 0.283D-01 0.990D+00
 Coeff:      0.858D-03-0.225D-02-0.852D-02-0.882D-02 0.283D-01 0.990D+00
 Gap=     0.334 Goal=   None    Shift=    0.000
 RMSDP=9.99D-06 MaxDP=4.54D-04 DE=-8.40D-06 OVMax= 1.40D-04

 Cycle   7  Pass 1  IDiag  1:
 RMSU=  4.70D-06    CP:  9.60D-01  9.51D-01  1.01D+00  6.96D-01  9.29D-01
                    CP:  1.11D+00
 E= -269.530419383723     Delta-E=       -0.000000161956 Rises=F Damp=F
 DIIS: error= 1.03D-05 at cycle   7 NSaved=   7.
 NSaved= 7 IEnMin= 7 EnMin= -269.530419383723     IErMin= 7 ErrMin= 1.03D-05
 ErrMax= 1.03D-05  0.00D+00 EMaxC= 1.00D-01 BMatC= 3.64D-08 BMatP= 1.35D-07
 IDIUse=1 WtCom= 1.00D+00 WtEn= 0.00D+00
 Coeff-Com:  0.542D-03-0.116D-02-0.614D-02-0.113D-01-0.316D-01 0.372D+00
 Coeff-Com:  0.678D+00
 Coeff:      0.542D-03-0.116D-02-0.614D-02-0.113D-01-0.316D-01 0.372D+00
 Coeff:      0.678D+00
 Gap=     0.334 Goal=   None    Shift=    0.000
 RMSDP=1.76D-06 MaxDP=4.46D-05 DE=-1.62D-07 OVMax= 4.17D-05

 Cycle   8  Pass 1  IDiag  1:
 RMSU=  9.18D-07    CP:  9.60D-01  9.51D-01  1.01D+00  6.97D-01  9.30D-01
                    CP:  1.14D+00  8.91D-01
 E= -269.530419412424     Delta-E=       -0.000000028701 Rises=F Damp=F
 DIIS: error= 3.65D-06 at cycle   8 NSaved=   8.
 NSaved= 8 IEnMin= 8 EnMin= -269.530419412424     IErMin= 8 ErrMin= 3.65D-06
 ErrMax= 3.65D-06  0.00D+00 EMaxC= 1.00D-01 BMatC= 4.45D-09 BMatP= 3.64D-08
 IDIUse=1 WtCom= 1.00D+00 WtEn= 0.00D+00
 Coeff-Com:  0.144D-03-0.281D-03-0.180D-02-0.387D-02-0.159D-01 0.688D-01
 Coeff-Com:  0.290D+00 0.663D+00
 Coeff:      0.144D-03-0.281D-03-0.180D-02-0.387D-02-0.159D-01 0.688D-01
 Coeff:      0.290D+00 0.663D+00
 Gap=     0.334 Goal=   None    Shift=    0.000
 RMSDP=7.29D-07 MaxDP=3.06D-05 DE=-2.87D-08 OVMax= 1.61D-05

 Cycle   9  Pass 1  IDiag  1:
 RMSU=  3.62D-07    CP:  9.60D-01  9.51D-01  1.01D+00  6.97D-01  9.31D-01
                    CP:  1.15D+00  9.75D-01  8.69D-01
 E= -269.530419415653     Delta-E=       -0.000000003229 Rises=F Damp=F
 DIIS: error= 8.60D-07 at cycle   9 NSaved=   9.
 NSaved= 9 IEnMin= 9 EnMin= -269.530419415653     IErMin= 9 ErrMin= 8.60D-07
 ErrMax= 8.60D-07  0.00D+00 EMaxC= 1.00D-01 BMatC= 2.35D-10 BMatP= 4.45D-09
 IDIUse=1 WtCom= 1.00D+00 WtEn= 0.00D+00
 Coeff-Com: -0.178D-06 0.523D-05-0.977D-04-0.335D-03-0.267D-02-0.749D-02
 Coeff-Com:  0.380D-01 0.211D+00 0.762D+00
 Coeff:     -0.178D-06 0.523D-05-0.977D-04-0.335D-03-0.267D-02-0.749D-02
 Coeff:      0.380D-01 0.211D+00 0.762D+00
 Gap=     0.334 Goal=   None    Shift=    0.000
 RMSDP=1.45D-07 MaxDP=3.10D-06 DE=-3.23D-09 OVMax= 4.27D-06

 Cycle  10  Pass 1  IDiag  1:
 RMSU=  1.04D-07    CP:  9.60D-01  9.51D-01  1.01D+00  6.97D-01  9.31D-01
                    CP:  1.15D+00  9.89D-01  9.27D-01  1.01D+00
 E= -269.530419415850     Delta-E=       -0.000000000197 Rises=F Damp=F
 DIIS: error= 3.23D-07 at cycle  10 NSaved=  10.
 NSaved=10 IEnMin=10 EnMin= -269.530419415850     IErMin=10 ErrMin= 3.23D-07
 ErrMax= 3.23D-07  0.00D+00 EMaxC= 1.00D-01 BMatC= 3.17D-11 BMatP= 2.35D-10
 IDIUse=1 WtCom= 1.00D+00 WtEn= 0.00D+00
 Coeff-Com: -0.135D-04 0.279D-04 0.130D-03 0.239D-03 0.528D-03-0.909D-02
 Coeff-Com: -0.173D-01 0.425D-02 0.298D+00 0.723D+00
 Coeff:     -0.135D-04 0.279D-04 0.130D-03 0.239D-03 0.528D-03-0.909D-02
 Coeff:     -0.173D-01 0.425D-02 0.298D+00 0.723D+00
 Gap=     0.334 Goal=   None    Shift=    0.000
 RMSDP=4.78D-08 MaxDP=9.41D-07 DE=-1.97D-10 OVMax= 1.76D-06

 Cycle  11  Pass 1  IDiag  1:
 RMSU=  2.88D-08    CP:  9.60D-01  9.51D-01  1.01D+00  6.97D-01  9.31D-01
                    CP:  1.15D+00  9.95D-01  9.43D-01  1.06D+00  9.75D-01
 E= -269.530419415876     Delta-E=       -0.000000000026 Rises=F Damp=F
 DIIS: error= 5.10D-08 at cycle  11 NSaved=  11.
 NSaved=11 IEnMin=11 EnMin= -269.530419415876     IErMin=11 ErrMin= 5.10D-08
 ErrMax= 5.10D-08  0.00D+00 EMaxC= 1.00D-01 BMatC= 6.01D-13 BMatP= 3.17D-11
 IDIUse=1 WtCom= 1.00D+00 WtEn= 0.00D+00
 Coeff-Com: -0.998D-06 0.228D-05 0.198D-04 0.376D-04 0.184D-03-0.311D-03
 Coeff-Com: -0.386D-02-0.120D-01-0.137D-01 0.637D-01 0.966D+00
 Coeff:     -0.998D-06 0.228D-05 0.198D-04 0.376D-04 0.184D-03-0.311D-03
 Coeff:     -0.386D-02-0.120D-01-0.137D-01 0.637D-01 0.966D+00
 Gap=     0.334 Goal=   None    Shift=    0.000
 RMSDP=1.84D-08 MaxDP=7.46D-07 DE=-2.60D-11 OVMax= 6.35D-07

 Cycle  12  Pass 1  IDiag  1:
 RMSU=  8.22D-09    CP:  9.60D-01  9.51D-01  1.01D+00  6.97D-01  9.31D-01
                    CP:  1.15D+00  9.97D-01  9.46D-01  1.08D+00  1.04D+00
                    CP:  1.10D+00
 E= -269.530419415876     Delta-E=        0.000000000000 Rises=F Damp=F
 DIIS: error= 1.38D-08 at cycle  12 NSaved=  12.
 NSaved=12 IEnMin=11 EnMin= -269.530419415876     IErMin=12 ErrMin= 1.38D-08
 ErrMax= 1.38D-08  0.00D+00 EMaxC= 1.00D-01 BMatC= 4.45D-14 BMatP= 6.01D-13
 IDIUse=1 WtCom= 1.00D+00 WtEn= 0.00D+00
 Coeff-Com:  0.855D-06-0.166D-05-0.617D-05-0.127D-04-0.240D-04 0.530D-03
 Coeff-Com:  0.646D-03-0.191D-02-0.208D-01-0.368D-01 0.147D+00 0.911D+00
 Coeff:      0.855D-06-0.166D-05-0.617D-05-0.127D-04-0.240D-04 0.530D-03
 Coeff:      0.646D-03-0.191D-02-0.208D-01-0.368D-01 0.147D+00 0.911D+00
 Gap=     0.334 Goal=   None    Shift=    0.000
 RMSDP=3.72D-09 MaxDP=6.97D-08 DE= 5.68D-14 OVMax= 1.82D-07

 SCF Done:  E(RM062X) =  -269.530419416     A.U. after   12 cycles
            NFock= 12  Conv=0.37D-08     -V/T= 2.0039
 KE= 2.684929324477D+02 PE=-1.007862564494D+03 EE= 2.817496616239D+02
 Leave Link  502 at Mon Nov 10 19:50:39 2025, MaxMem=    33554432 cpu:        25.1
 (Enter /opt/programs/gaussian/g09/d_pgi133/l601.exe)
 Copying SCF densities to generalized density rwf, IOpCl= 0 IROHF=0.

 **********************************************************************

            Population analysis using the SCF density.

 **********************************************************************

 Orbital symmetries:
       Occupied  (A) (A) (A) (A) (A) (A) (A) (A) (A) (A) (A) (A)
                 (A) (A) (A) (A) (A) (A) (A) (A) (A)
       Virtual   (A) (A) (A) (A) (A) (A) (A) (A) (A) (A) (A) (A)
                 (A) (A) (A) (A) (A) (A) (A) (A) (A) (A) (A) (A)
                 (A) (A) (A) (A) (A) (A) (A) (A) (A) (A) (A) (A)
                 (A) (A) (A) (A) (A) (A) (A) (A) (A) (A) (A) (A)
                 (A) (A) (A) (A) (A) (A) (A) (A) (A) (A) (A) (A)
                 (A) (A) (A) (A) (A) (A) (A) (A) (A) (A) (A) (A)
                 (A) (A) (A) (A) (A) (A) (A) (A) (A) (A) (A) (A)
                 (A) (A) (A) (A) (A) (A) (A) (A) (A) (A) (A) (A)
                 (A) (A) (A) (A) (A) (A) (A) (A) (A) (A) (A) (A)
                 (A) (A) (A) (A) (A) (A) (A) (A) (A) (A) (A) (A)
                 (A) (A) (A) (A) (A) (A) (A) (A) (A) (A) (A) (A)
                 (A) (A) (A) (A) (A) (A) (A) (A) (A) (A) (A) (A)
                 (A)
 The electronic state is 1-A.
 Alpha  occ. eigenvalues --  -19.62992 -19.61868 -10.59422 -10.57820 -10.53799
 Alpha  occ. eigenvalues --   -1.15190  -1.13936  -0.87545  -0.76329  -0.68147
 Alpha  occ. eigenvalues --   -0.60684  -0.58690  -0.52906  -0.51331  -0.50276
 Alpha  occ. eigenvalues --   -0.45331  -0.43529  -0.42163  -0.38369  -0.36091
 Alpha  occ. eigenvalues --   -0.34266
 Alpha virt. eigenvalues --   -0.00880   0.00330   0.01502   0.02067   0.03627
 Alpha virt. eigenvalues --    0.04527   0.05231   0.05778   0.08059   0.09433
 Alpha virt. eigenvalues --    0.09592   0.11595   0.11963   0.12225   0.13071
 Alpha virt. eigenvalues --    0.13387   0.14336   0.15555   0.16667   0.17084
 Alpha virt. eigenvalues --    0.20102   0.20920   0.21510   0.22240   0.23492
 Alpha virt. eigenvalues --    0.24397   0.26147   0.26741   0.27341   0.28858
 Alpha virt. eigenvalues --    0.29227   0.30966   0.31810   0.32609   0.33569
 Alpha virt. eigenvalues --    0.34371   0.35503   0.39265   0.40430   0.41694
 Alpha virt. eigenvalues --    0.47238   0.49437   0.51152   0.52710   0.58047
 Alpha virt. eigenvalues --    0.59287   0.60549   0.63140   0.65951   0.68133
 Alpha virt. eigenvalues --    0.69791   0.70384   0.72447   0.74437   0.75920
 Alpha virt. eigenvalues --    0.77488   0.78471   0.92953   0.96921   0.99964
 Alpha virt. eigenvalues --    1.02757   1.05959   1.13027   1.14771   1.18397
 Alpha virt. eigenvalues --    1.21187   1.23301   1.27447   1.29968   1.34207
 Alpha virt. eigenvalues --    1.40145   1.43992   1.45607   1.48494   1.53832
 Alpha virt. eigenvalues --    1.55128   1.59456   1.60976   1.61820   1.63810
 Alpha virt. eigenvalues --    1.65409   1.65720   1.69024   1.70264   1.74635
 Alpha virt. eigenvalues --    1.76485   1.80754   1.83611   1.86061   1.87618
 Alpha virt. eigenvalues --    1.94181   2.02829   2.04384   2.08146   2.11283
 Alpha virt. eigenvalues --    2.14843   2.17704   2.25089   2.29857   2.30949
 Alpha virt. eigenvalues --    2.37051   2.46486   2.51767   2.54048   2.54693
 Alpha virt. eigenvalues --    2.57754   2.57959   2.64259   2.65508   2.67881
 Alpha virt. eigenvalues --    2.72443   2.77554   2.81639   2.89548   2.91470
 Alpha virt. eigenvalues --    2.98940   3.02175   3.11485   3.18501   3.19749
 Alpha virt. eigenvalues --    3.25169   3.27389   3.32930   3.37563   3.44428
 Alpha virt. eigenvalues --    3.79997   3.81771   3.86794   3.92166   3.95793
 Alpha virt. eigenvalues --    4.04206   4.06226   4.17554   4.33992   5.16783
 Alpha virt. eigenvalues --    5.19864   5.49632   5.50391   5.73697   5.74633
 Alpha virt. eigenvalues --   23.89808  23.92994  23.97966  50.01600  50.03765
          Condensed to atoms (all electrons):
               1          2          3          4          5          6
     1  C    5.495495   0.390540   0.382592   0.093810  -0.017538  -0.088748
     2  H    0.390540   0.668961  -0.094036  -0.054958  -0.020718   0.018724
     3  H    0.382592  -0.094036   0.652606  -0.004488   0.012438  -0.028185
     4  C    0.093810  -0.054958  -0.004488   5.641572   0.302991   0.503136
     5  H   -0.017538  -0.020718   0.012438   0.302991   0.621893  -0.065197
     6  H   -0.088748   0.018724  -0.028185   0.503136  -0.065197   0.531231
     7  C   -0.040732   0.002361  -0.015704  -0.056090   0.038120  -0.070901
     8  H   -0.007060  -0.000612   0.000688   0.118823  -0.040565   0.014870
     9  H   -0.018327   0.000732   0.001854  -0.094389   0.019836  -0.017948
    10  O    0.150816  -0.066557  -0.054130  -0.079609   0.028709  -0.018468
    11  H    0.025406  -0.006148  -0.010002  -0.016223  -0.002203   0.003868
    12  O    0.028800  -0.000489   0.000011  -0.048830  -0.023451   0.001924
    13  H    0.006131   0.001820  -0.000910  -0.017500   0.012110  -0.005309
               7          8          9         10         11         12
     1  C   -0.040732  -0.007060  -0.018327   0.150816   0.025406   0.028800
     2  H    0.002361  -0.000612   0.000732  -0.066557  -0.006148  -0.000489
     3  H   -0.015704   0.000688   0.001854  -0.054130  -0.010002   0.000011
     4  C   -0.056090   0.118823  -0.094389  -0.079609  -0.016223  -0.048830
     5  H    0.038120  -0.040565   0.019836   0.028709  -0.002203  -0.023451
     6  H   -0.070901   0.014870  -0.017948  -0.018468   0.003868   0.001924
     7  C    5.605314   0.220092   0.479856  -0.037269   0.006667   0.198092
     8  H    0.220092   0.679732  -0.078064  -0.023581   0.000116  -0.021222
     9  H    0.479856  -0.078064   0.542611   0.034709  -0.002086  -0.087898
    10  O   -0.037269  -0.023581   0.034709   8.129435   0.215838  -0.003400
    11  H    0.006667   0.000116  -0.002086   0.215838   0.517502  -0.000098
    12  O    0.198092  -0.021222  -0.087898  -0.003400  -0.000098   7.976584
    13  H   -0.018368  -0.024561   0.021119   0.000485   0.000094   0.245769
              13
     1  C    0.006131
     2  H    0.001820
     3  H   -0.000910
     4  C   -0.017500
     5  H    0.012110
     6  H   -0.005309
     7  C   -0.018368
     8  H   -0.024561
     9  H    0.021119
    10  O    0.000485
    11  H    0.000094
    12  O    0.245769
    13  H    0.534313
 Mulliken charges:
               1
     1  C   -0.401186
     2  H    0.160380
     3  H    0.157267
     4  C   -0.288246
     5  H    0.133573
     6  H    0.221004
     7  C   -0.311437
     8  H    0.161345
     9  H    0.197995
    10  O   -0.276978
    11  H    0.267269
    12  O   -0.265793
    13  H    0.244807
 Sum of Mulliken charges =   0.00000
 Mulliken charges with hydrogens summed into heavy atoms:
               1
     1  C   -0.083539
     4  C    0.066331
     7  C    0.047903
    10  O   -0.009709
    12  O   -0.020986
 Electronic spatial extent (au):  <R**2>=            553.8451
 Charge=              0.0000 electrons
 Dipole moment (field-independent basis, Debye):
    X=             -2.1550    Y=              2.2388    Z=              1.7810  Tot=              3.5817
 Quadrupole moment (field-independent basis, Debye-Ang):
   XX=            -29.2112   YY=            -31.8344   ZZ=            -32.5688
   XY=              3.4042   XZ=              1.1164   YZ=             -0.2412
 Traceless Quadrupole moment (field-independent basis, Debye-Ang):
   XX=              1.9936   YY=             -0.6296   ZZ=             -1.3640
   XY=              3.4042   XZ=              1.1164   YZ=             -0.2412
 Octapole moment (field-independent basis, Debye-Ang**2):
  XXX=            -29.1947  YYY=             -2.4316  ZZZ=              0.2615  XYY=              1.3212
  XXY=              7.0666  XXZ=              9.6776  XZZ=              0.5168  YZZ=             -0.2793
  YYZ=              0.0378  XYZ=              2.4420
 Hexadecapole moment (field-independent basis, Debye-Ang**3):
 XXXX=           -426.9852 YYYY=           -123.0939 ZZZZ=            -62.8773 XXXY=             58.0565
 XXXZ=             10.3836 YYYX=              7.3016 YYYZ=              2.1602 ZZZX=              0.3833
 ZZZY=             -0.3397 XXYY=            -95.4229 XXZZ=            -97.6188 YYZZ=            -32.3232
 XXYZ=             -0.9219 YYXZ=              0.7284 ZZXY=              0.9115
 N-N= 1.880895510066D+02 E-N=-1.007862565203D+03  KE= 2.684929324477D+02
 No NMR shielding tensors so no spin-rotation constants.
 Leave Link  601 at Mon Nov 10 19:50:39 2025, MaxMem=    33554432 cpu:         0.0
 (Enter /opt/programs/gaussian/g09/d_pgi133/l9999.exe)
 1\1\GINC-EXADE5\SP\RM062X\6-311++G(d,p)\C3H8O2\APINTO\10-Nov-2025\0\\#
 p M062X/6-311++G(d,p)\\SP\\0,1\C,0,1.427789,-0.225907,-0.015189\H,0,1.
 479372,-0.982442,0.786266\H,0,2.108554,-0.553352,-0.816146\C,0,0.00212
 7,-0.150314,-0.553686\H,0,-0.318822,-1.166366,-0.823496\H,0,-0.014985,
 0.446625,-1.472835\C,0,-0.98961,0.470336,0.433874\H,0,-0.989316,-0.098
 577,1.379073\H,0,-0.679528,1.489228,0.671405\O,0,1.787988,1.057857,0.4
 85684\H,0,2.691074,1.006415,0.822155\O,0,-2.301796,0.572164,-0.108338\
 H,0,-2.615221,-0.324376,-0.286033\\Version=ES64L-G09RevD.01\State=1-A\
 HF=-269.5304194\RMSD=3.724e-09\Dipole=0.8509942,-1.1190884,0.0955068\Q
 uadrupole=1.3107686,-0.8009959,-0.5097727,2.5090234,0.9949536,0.504008
 5\PG=C01 [X(C3H8O2)]\\@


 FOR THE NATURE OF THE CHEMICAL BOND
 IS THE PROBLEM AT THE HEART OF ALL CHEMISTRY.

                     -- BRYCE CRAWFORD, JR., 1953
 Job cpu time:       0 days  0 hours  0 minutes 26.8 seconds.
 File lengths (MBytes):  RWF=     16 Int=      0 D2E=      0 Chk=      2 Scr=      1
 Normal termination of Gaussian 09 at Mon Nov 10 19:50:39 2025.
