 Entering Gaussian System, Link 0=g09
 Input=xbr.com
 Output=xbr.log
 Initial command:
 /opt/programs/gaussian/g09/d_pgi133/l1.exe "/scratch/users/apinto/lixo/Gau-1271077.inp" -scrdir="/scratch/users/apinto/lixo/"
 Entering Link 1 = /opt/programs/gaussian/g09/d_pgi133/l1.exe PID=   1271079.
  
 Copyright (c) 1988,1990,1992,1993,1995,1998,2003,2009,2013,
            Gaussian, Inc.  All Rights Reserved.
  
 This is part of the Gaussian(R) 09 program.  It is based on
 the Gaussian(R) 03 system (copyright 2003, Gaussian, Inc.),
 the Gaussian(R) 98 system (copyright 1998, Gaussian, Inc.),
 the Gaussian(R) 94 system (copyright 1995, Gaussian, Inc.),
 the Gaussian 92(TM) system (copyright 1992, Gaussian, Inc.),
 the Gaussian 90(TM) system (copyright 1990, Gaussian, Inc.),
 the Gaussian 88(TM) system (copyright 1988, Gaussian, Inc.),
 the Gaussian 86(TM) system (copyright 1986, Carnegie Mellon
 University), and the Gaussian 82(TM) system (copyright 1983,
 Carnegie Mellon University). Gaussian is a federally registered
 trademark of Gaussian, Inc.
  
 This software contains proprietary and confidential information,
 including trade secrets, belonging to Gaussian, Inc.
  
 This software is provided under written license and may be
 used, copied, transmitted, or stored only in accord with that
 written license.
  
 The following legend is applicable only to US Government
 contracts under FAR:
  
                    RESTRICTED RIGHTS LEGEND
  
 Use, reproduction and disclosure by the US Government is
 subject to restrictions as set forth in subparagraphs (a)
 and (c) of the Commercial Computer Software - Restricted
 Rights clause in FAR 52.227-19.
  
 Gaussian, Inc.
 340 Quinnipiac St., Bldg. 40, Wallingford CT 06492
  
  
 ---------------------------------------------------------------
 Warning -- This program may not be used in any manner that
 competes with the business of Gaussian, Inc. or will provide
 assistance to any competitor of Gaussian, Inc.  The licensee
 of this program is prohibited from giving any competitor of
 Gaussian, Inc. access to this program.  By using this program,
 the user acknowledges that Gaussian, Inc. is engaged in the
 business of creating and licensing software in the field of
 computational chemistry and represents and warrants to the
 licensee that it is not a competitor of Gaussian, Inc. and that
 it will not use this program in any manner prohibited above.
 ---------------------------------------------------------------
  

 Cite this work as:
 Gaussian 09, Revision D.01,
 M. J. Frisch, G. W. Trucks, H. B. Schlegel, G. E. Scuseria, 
 M. A. Robb, J. R. Cheeseman, G. Scalmani, V. Barone, B. Mennucci, 
 G. A. Petersson, H. Nakatsuji, M. Caricato, X. Li, H. P. Hratchian, 
 A. F. Izmaylov, J. Bloino, G. Zheng, J. L. Sonnenberg, M. Hada, 
 M. Ehara, K. Toyota, R. Fukuda, J. Hasegawa, M. Ishida, T. Nakajima, 
 Y. Honda, O. Kitao, H. Nakai, T. Vreven, J. A. Montgomery, Jr., 
 J. E. Peralta, F. Ogliaro, M. Bearpark, J. J. Heyd, E. Brothers, 
 K. N. Kudin, V. N. Staroverov, T. Keith, R. Kobayashi, J. Normand, 
 K. Raghavachari, A. Rendell, J. C. Burant, S. S. Iyengar, J. Tomasi, 
 M. Cossi, N. Rega, J. M. Millam, M. Klene, J. E. Knox, J. B. Cross, 
 V. Bakken, C. Adamo, J. Jaramillo, R. Gomperts, R. E. Stratmann, 
 O. Yazyev, A. J. Austin, R. Cammi, C. Pomelli, J. W. Ochterski, 
 R. L. Martin, K. Morokuma, V. G. Zakrzewski, G. A. Voth, 
 P. Salvador, J. J. Dannenberg, S. Dapprich, A. D. Daniels, 
 O. Farkas, J. B. Foresman, J. V. Ortiz, J. Cioslowski, 
 and D. J. Fox, Gaussian, Inc., Wallingford CT, 2013.
 
 ******************************************
 Gaussian 09:  ES64L-G09RevD.01 24-Apr-2013
                10-Nov-2025 
 ******************************************
 ----------------------
 #p M062X/6-311++G(d,p)
 ----------------------
 1/38=1/1;
 2/12=2,17=6,18=5,40=1/2;
 3/5=4,6=6,7=1111,11=2,16=1,25=1,30=1,74=-55/1,2,3;
 4//1;
 5/5=2,38=5/2;
 6/7=2,8=2,9=2,10=2,28=1/1;
 99/5=1,9=1/99;
 Leave Link    1 at Mon Nov 10 19:51:05 2025, MaxMem=           0 cpu:         0.0
 (Enter /opt/programs/gaussian/g09/d_pgi133/l101.exe)
 --
 SP
 --
 Symbolic Z-matrix:
 Charge =  0 Multiplicity = 1
 C                     1.4386   -0.22588  -0.03846 
 H                     1.55099  -1.07052   0.66203 
 H                     2.12577  -0.40869  -0.87854 
 C                    -0.00343  -0.17881  -0.55013 
 H                    -0.33311  -1.20616  -0.75683 
 H                    -0.0465    0.36452  -1.50139 
 C                    -0.97903   0.50868   0.41044 
 H                    -0.96843   0.00887   1.39303 
 H                    -0.66686   1.5409    0.57278 
 O                     1.73148   1.00056   0.62483 
 H                     2.65119   0.97082   0.91563 
 O                    -2.29763   0.57181  -0.12394 
 H                    -2.61542  -0.3348   -0.22672 
 
 NAtoms=     13 NQM=       13 NQMF=       0 NMMI=      0 NMMIF=      0
                NMic=       0 NMicF=      0.
                    Isotopes and Nuclear Properties:
 (Nuclear quadrupole moments (NQMom) in fm**2, nuclear magnetic moments (NMagM)
  in nuclear magnetons)

  Atom         1           2           3           4           5           6           7           8           9          10
 IAtWgt=          12           1           1          12           1           1          12           1           1          16
 AtmWgt=  12.0000000   1.0078250   1.0078250  12.0000000   1.0078250   1.0078250  12.0000000   1.0078250   1.0078250  15.9949146
 NucSpn=           0           1           1           0           1           1           0           1           1           0
 AtZEff=   0.0000000   0.0000000   0.0000000   0.0000000   0.0000000   0.0000000   0.0000000   0.0000000   0.0000000   0.0000000
 NQMom=    0.0000000   0.0000000   0.0000000   0.0000000   0.0000000   0.0000000   0.0000000   0.0000000   0.0000000   0.0000000
 NMagM=    0.0000000   2.7928460   2.7928460   0.0000000   2.7928460   2.7928460   0.0000000   2.7928460   2.7928460   0.0000000
 AtZNuc=   6.0000000   1.0000000   1.0000000   6.0000000   1.0000000   1.0000000   6.0000000   1.0000000   1.0000000   8.0000000

  Atom        11          12          13
 IAtWgt=           1          16           1
 AtmWgt=   1.0078250  15.9949146   1.0078250
 NucSpn=           1           0           1
 AtZEff=   0.0000000   0.0000000   0.0000000
 NQMom=    0.0000000   0.0000000   0.0000000
 NMagM=    2.7928460   0.0000000   2.7928460
 AtZNuc=   1.0000000   8.0000000   1.0000000
 Leave Link  101 at Mon Nov 10 19:51:05 2025, MaxMem=    33554432 cpu:         0.0
 (Enter /opt/programs/gaussian/g09/d_pgi133/l202.exe)
                          Input orientation:                          
 ---------------------------------------------------------------------
 Center     Atomic      Atomic             Coordinates (Angstroms)
 Number     Number       Type             X           Y           Z
 ---------------------------------------------------------------------
      1          6           0        1.438598   -0.225876   -0.038460
      2          1           0        1.550991   -1.070522    0.662029
      3          1           0        2.125770   -0.408688   -0.878539
      4          6           0       -0.003432   -0.178808   -0.550125
      5          1           0       -0.333113   -1.206164   -0.756833
      6          1           0       -0.046500    0.364524   -1.501386
      7          6           0       -0.979029    0.508676    0.410437
      8          1           0       -0.968431    0.008869    1.393029
      9          1           0       -0.666855    1.540895    0.572784
     10          8           0        1.731483    1.000560    0.624826
     11          1           0        2.651192    0.970818    0.915630
     12          8           0       -2.297628    0.571809   -0.123940
     13          1           0       -2.615419   -0.334798   -0.226717
 ---------------------------------------------------------------------
                    Distance matrix (angstroms):
                    1          2          3          4          5
     1  C    0.000000
     2  H    1.103061   0.000000
     3  H    1.100617   1.772497   0.000000
     4  C    1.530839   2.163493   2.166611   0.000000
     5  H    2.148484   2.362502   2.587834   1.098580   0.000000
     6  H    2.166620   3.048229   2.388420   1.096340   1.761694
     7  C    2.566319   2.993020   3.484651   1.532026   2.172649
     8  H    2.810348   2.836712   3.861147   2.177681   2.549871
     9  H    2.815676   3.427288   3.702157   2.158340   3.070114
    10  O    1.424737   2.079265   2.097987   2.404444   3.322825
    11  H    1.952626   2.332772   2.323391   3.243009   4.054930
    12  O    3.821386   4.257566   4.593174   2.451203   2.724162
    13  H    4.059847   4.323208   4.786356   2.636551   2.499844
                    6          7          8          9         10
     6  H    0.000000
     7  C    2.132008   0.000000
     8  H    3.058445   1.102455   0.000000
     9  H    2.463914   1.090544   1.763761   0.000000
    10  O    2.843685   2.763112   2.977100   2.459003   0.000000
    11  H    3.672479   3.694225   3.775570   3.384076   0.965047
    12  O    2.647244   1.424166   2.094006   2.020884   4.120463
    13  H    2.951809   1.948124   2.335434   2.820342   4.626431
                   11         12         13
    11  H    0.000000
    12  O    5.072547   0.000000
    13  H    5.544978   0.966173   0.000000
 Stoichiometry    C3H8O2
 Framework group  C1[X(C3H8O2)]
 Deg. of freedom    33
 Full point group                 C1      NOp   1
 Largest Abelian subgroup         C1      NOp   1
 Largest concise Abelian subgroup C1      NOp   1
                         Standard orientation:                         
 ---------------------------------------------------------------------
 Center     Atomic      Atomic             Coordinates (Angstroms)
 Number     Number       Type             X           Y           Z
 ---------------------------------------------------------------------
      1          6           0       -1.427299    0.564373    0.146438
      2          1           0       -1.610586    0.774691    1.213638
      3          1           0       -2.033530    1.277524   -0.432576
      4          6           0        0.056759    0.774232   -0.165007
      5          1           0        0.397769    1.678056    0.358151
      6          1           0        0.192679    0.959155   -1.237057
      7          6           0        0.942058   -0.419800    0.205985
      8          1           0        0.835797   -0.659940    1.276708
      9          1           0        0.622683   -1.300101   -0.352902
     10          8           0       -1.773357   -0.785204   -0.151490
     11          1           0       -2.716525   -0.896654    0.019767
     12          8           0        2.305477   -0.201041   -0.142556
     13          1           0        2.625651    0.544394    0.382139
 ---------------------------------------------------------------------
 Rotational constants (GHZ):     12.6806925      2.5281946      2.2390414
 Leave Link  202 at Mon Nov 10 19:51:05 2025, MaxMem=    33554432 cpu:         0.0
 (Enter /opt/programs/gaussian/g09/d_pgi133/l301.exe)
 Standard basis: 6-311++G(d,p) (5D, 7F)
 Ernie: Thresh=  0.10000D-02 Tol=  0.10000D-05 Strict=F.
 There are   171 symmetry adapted cartesian basis functions of A   symmetry.
 There are   166 symmetry adapted basis functions of A   symmetry.
   166 basis functions,   252 primitive gaussians,   171 cartesian basis functions
    21 alpha electrons       21 beta electrons
       nuclear repulsion energy       188.2927376324 Hartrees.
 IExCor= 4336 DFT=T Ex+Corr=M062X ExCW=0 ScaHFX=  0.540000
 ScaDFX=  1.000000  1.000000  1.000000  1.000000 ScalE2=  1.000000  1.000000
 IRadAn=      0 IRanWt=     -1 IRanGd=            0 ICorTp=0 IEmpDi=  4
 NAtoms=   13 NActive=   13 NUniq=   13 SFac= 1.00D+00 NAtFMM=   60 NAOKFM=F Big=F
 Integral buffers will be    131072 words long.
 Raffenetti 2 integral format.
 Two-electron integral symmetry is turned on.
 Leave Link  301 at Mon Nov 10 19:51:05 2025, MaxMem=    33554432 cpu:         0.0
 (Enter /opt/programs/gaussian/g09/d_pgi133/l302.exe)
 NPDir=0 NMtPBC=     1 NCelOv=     1 NCel=       1 NClECP=     1 NCelD=      1
         NCelK=      1 NCelE2=     1 NClLst=     1 CellRange=     0.0.
 One-electron integrals computed using PRISM.
 NBasis=   166 RedAO= T EigKep=  3.96D-05  NBF=   166
 NBsUse=   166 1.00D-06 EigRej= -1.00D+00 NBFU=   166
 Precomputing XC quadrature grid using
 IXCGrd= 4 IRadAn=           0 IRanWt=          -1 IRanGd=           0 AccXCQ= 0.00D+00.
 Generated NRdTot=       0 NPtTot=           0 NUsed=           0 NTot=          32
 NSgBfM=   171   171   171   171   171 MxSgAt=    13 MxSgA2=    13.
 Leave Link  302 at Mon Nov 10 19:51:06 2025, MaxMem=    33554432 cpu:         0.1
 (Enter /opt/programs/gaussian/g09/d_pgi133/l303.exe)
 DipDrv:  MaxL=1.
 Leave Link  303 at Mon Nov 10 19:51:06 2025, MaxMem=    33554432 cpu:         0.0
 (Enter /opt/programs/gaussian/g09/d_pgi133/l401.exe)
 ExpMin= 3.60D-02 ExpMax= 8.59D+03 ExpMxC= 1.30D+03 IAcc=3 IRadAn=         5 AccDes= 0.00D+00
 Harris functional with IExCor= 1009 and IRadAn=       5 diagonalized for initial guess.
 HarFok:  IExCor= 1009 AccDes= 0.00D+00 IRadAn=         5 IDoV= 1 UseB2=F ITyADJ=14
 ICtDFT=  3500011 ScaDFX=  1.000000  1.000000  1.000000  1.000000
 FoFCou: FMM=F IPFlag=           0 FMFlag=      100000 FMFlg1=           0
         NFxFlg=           0 DoJE=T BraDBF=F KetDBF=T FulRan=T
         wScrn=  0.000000 ICntrl=     500 IOpCl=  0 I1Cent=   200000004 NGrid=           0
         NMat0=    1 NMatS0=      1 NMatT0=    0 NMatD0=    1 NMtDS0=    0 NMtDT0=    0
 Petite list used in FoFCou.
 Harris En= -269.441964633418    
 JPrj=0 DoOrth=F DoCkMO=F.
 Leave Link  401 at Mon Nov 10 19:51:07 2025, MaxMem=    33554432 cpu:         1.5
 (Enter /opt/programs/gaussian/g09/d_pgi133/l502.exe)
 Closed shell SCF:
 Using DIIS extrapolation, IDIIS=  1040.
 Integral symmetry usage will be decided dynamically.
 IVT=      108587 IEndB=      108587 NGot=    33554432 MDV=    33491898
 LenX=    33491898 LenY=    33462216
 Requested convergence on RMS density matrix=1.00D-08 within 128 cycles.
 Requested convergence on MAX density matrix=1.00D-06.
 Requested convergence on             energy=1.00D-06.
 No special actions if energy rises.
 Fock matrices will be formed incrementally for  20 cycles.

 Cycle   1  Pass 1  IDiag  1:
 FoFJK:  IHMeth= 1 ICntrl=       0 DoSepK=F KAlg= 0 I1Cent=   0 FoldK=F
 IRaf= 980000000 NMat=   1 IRICut=       1 DoRegI=T DoRafI=F ISym2E= 0.
 FoFCou: FMM=F IPFlag=           0 FMFlag=      100000 FMFlg1=           0
         NFxFlg=           0 DoJE=F BraDBF=F KetDBF=F FulRan=T
         wScrn=  0.000000 ICntrl=       0 IOpCl=  0 I1Cent=           0 NGrid=           0
         NMat0=    1 NMatS0=      1 NMatT0=    0 NMatD0=    1 NMtDS0=    0 NMtDT0=    0
 Symmetry not used in FoFCou.
 E= -269.359439590150    
 DIIS: error= 3.33D-02 at cycle   1 NSaved=   1.
 NSaved= 1 IEnMin= 1 EnMin= -269.359439590150     IErMin= 1 ErrMin= 3.33D-02
 ErrMax= 3.33D-02  0.00D+00 EMaxC= 1.00D-01 BMatC= 2.35D-01 BMatP= 2.35D-01
 IDIUse=3 WtCom= 6.67D-01 WtEn= 3.33D-01
 Coeff-Com:  0.100D+01
 Coeff-En:   0.100D+01
 Coeff:      0.100D+01
 Gap=     0.284 Goal=   None    Shift=    0.000
 GapD=    0.284 DampG=1.000 DampE=0.500 DampFc=0.5000 IDamp=-1.
 Damping current iteration by 5.00D-01
 RMSDP=6.78D-03 MaxDP=2.03D-01              OVMax= 1.32D-01

 Cycle   2  Pass 1  IDiag  1:
 RMSU=  3.38D-03    CP:  9.82D-01
 E= -269.440471325795     Delta-E=       -0.081031735645 Rises=F Damp=T
 DIIS: error= 5.66D-03 at cycle   2 NSaved=   2.
 NSaved= 2 IEnMin= 2 EnMin= -269.440471325795     IErMin= 2 ErrMin= 5.66D-03
 ErrMax= 5.66D-03  0.00D+00 EMaxC= 1.00D-01 BMatC= 1.54D-02 BMatP= 2.35D-01
 IDIUse=3 WtCom= 9.43D-01 WtEn= 5.66D-02
 Coeff-Com: -0.326D-01 0.103D+01
 Coeff-En:   0.000D+00 0.100D+01
 Coeff:     -0.307D-01 0.103D+01
 Gap=     0.342 Goal=   None    Shift=    0.000
 RMSDP=2.00D-03 MaxDP=7.56D-02 DE=-8.10D-02 OVMax= 7.48D-02

 Cycle   3  Pass 1  IDiag  1:
 RMSU=  1.94D-03    CP:  9.61D-01  8.94D-01
 E= -269.526000277870     Delta-E=       -0.085528952075 Rises=F Damp=F
 DIIS: error= 4.94D-03 at cycle   3 NSaved=   3.
 NSaved= 3 IEnMin= 3 EnMin= -269.526000277870     IErMin= 3 ErrMin= 4.94D-03
 ErrMax= 4.94D-03  0.00D+00 EMaxC= 1.00D-01 BMatC= 4.15D-03 BMatP= 1.54D-02
 IDIUse=3 WtCom= 9.51D-01 WtEn= 4.94D-02
 Coeff-Com: -0.776D-01 0.317D+00 0.760D+00
 Coeff-En:   0.000D+00 0.000D+00 0.100D+01
 Coeff:     -0.737D-01 0.302D+00 0.772D+00
 Gap=     0.335 Goal=   None    Shift=    0.000
 RMSDP=4.13D-04 MaxDP=1.26D-02 DE=-8.55D-02 OVMax= 1.27D-02

 Cycle   4  Pass 1  IDiag  1:
 RMSU=  3.37D-04    CP:  9.62D-01  9.64D-01  9.88D-01
 E= -269.528228181946     Delta-E=       -0.002227904076 Rises=F Damp=F
 DIIS: error= 2.07D-03 at cycle   4 NSaved=   4.
 NSaved= 4 IEnMin= 4 EnMin= -269.528228181946     IErMin= 4 ErrMin= 2.07D-03
 ErrMax= 2.07D-03  0.00D+00 EMaxC= 1.00D-01 BMatC= 7.61D-04 BMatP= 4.15D-03
 IDIUse=3 WtCom= 9.79D-01 WtEn= 2.07D-02
 Coeff-Com: -0.320D-01 0.859D-01 0.372D+00 0.574D+00
 Coeff-En:   0.000D+00 0.000D+00 0.101D+00 0.899D+00
 Coeff:     -0.313D-01 0.841D-01 0.367D+00 0.581D+00
 Gap=     0.332 Goal=   None    Shift=    0.000
 RMSDP=1.71D-04 MaxDP=5.27D-03 DE=-2.23D-03 OVMax= 4.70D-03

 Cycle   5  Pass 1  IDiag  1:
 RMSU=  1.01D-04    CP:  9.60D-01  9.45D-01  9.93D-01  6.49D-01
 E= -269.528839384565     Delta-E=       -0.000611202619 Rises=F Damp=F
 DIIS: error= 2.43D-04 at cycle   5 NSaved=   5.
 NSaved= 5 IEnMin= 5 EnMin= -269.528839384565     IErMin= 5 ErrMin= 2.43D-04
 ErrMax= 2.43D-04  0.00D+00 EMaxC= 1.00D-01 BMatC= 1.06D-05 BMatP= 7.61D-04
 IDIUse=3 WtCom= 9.98D-01 WtEn= 2.43D-03
 Coeff-Com: -0.394D-02 0.560D-02 0.527D-01 0.153D+00 0.793D+00
 Coeff-En:   0.000D+00 0.000D+00 0.000D+00 0.000D+00 0.100D+01
 Coeff:     -0.393D-02 0.559D-02 0.526D-01 0.153D+00 0.793D+00
 Gap=     0.332 Goal=   None    Shift=    0.000
 RMSDP=3.44D-05 MaxDP=7.77D-04 DE=-6.11D-04 OVMax= 6.00D-04

 Cycle   6  Pass 1  IDiag  1:
 RMSU=  2.46D-05    CP:  9.60D-01  9.41D-01  1.00D+00  6.86D-01  9.07D-01
 E= -269.528848124755     Delta-E=       -0.000008740190 Rises=F Damp=F
 DIIS: error= 2.13D-05 at cycle   6 NSaved=   6.
 NSaved= 6 IEnMin= 6 EnMin= -269.528848124755     IErMin= 6 ErrMin= 2.13D-05
 ErrMax= 2.13D-05  0.00D+00 EMaxC= 1.00D-01 BMatC= 1.29D-07 BMatP= 1.06D-05
 IDIUse=1 WtCom= 1.00D+00 WtEn= 0.00D+00
 Coeff-Com:  0.890D-03-0.229D-02-0.881D-02-0.983D-02 0.223D-01 0.998D+00
 Coeff:      0.890D-03-0.229D-02-0.881D-02-0.983D-02 0.223D-01 0.998D+00
 Gap=     0.333 Goal=   None    Shift=    0.000
 RMSDP=9.69D-06 MaxDP=4.32D-04 DE=-8.74D-06 OVMax= 1.38D-04

 Cycle   7  Pass 1  IDiag  1:
 RMSU=  4.46D-06    CP:  9.60D-01  9.39D-01  1.00D+00  6.89D-01  9.40D-01
                    CP:  1.11D+00
 E= -269.528848285693     Delta-E=       -0.000000160938 Rises=F Damp=F
 DIIS: error= 9.32D-06 at cycle   7 NSaved=   7.
 NSaved= 7 IEnMin= 7 EnMin= -269.528848285693     IErMin= 7 ErrMin= 9.32D-06
 ErrMax= 9.32D-06  0.00D+00 EMaxC= 1.00D-01 BMatC= 3.16D-08 BMatP= 1.29D-07
 IDIUse=1 WtCom= 1.00D+00 WtEn= 0.00D+00
 Coeff-Com:  0.534D-03-0.114D-02-0.599D-02-0.113D-01-0.315D-01 0.359D+00
 Coeff-Com:  0.690D+00
 Coeff:      0.534D-03-0.114D-02-0.599D-02-0.113D-01-0.315D-01 0.359D+00
 Coeff:      0.690D+00
 Gap=     0.333 Goal=   None    Shift=    0.000
 RMSDP=1.71D-06 MaxDP=3.00D-05 DE=-1.61D-07 OVMax= 3.93D-05

 Cycle   8  Pass 1  IDiag  1:
 RMSU=  8.72D-07    CP:  9.60D-01  9.39D-01  1.00D+00  6.90D-01  9.41D-01
                    CP:  1.15D+00  8.95D-01
 E= -269.528848310915     Delta-E=       -0.000000025222 Rises=F Damp=F
 DIIS: error= 3.60D-06 at cycle   8 NSaved=   8.
 NSaved= 8 IEnMin= 8 EnMin= -269.528848310915     IErMin= 8 ErrMin= 3.60D-06
 ErrMax= 3.60D-06  0.00D+00 EMaxC= 1.00D-01 BMatC= 4.23D-09 BMatP= 3.16D-08
 IDIUse=1 WtCom= 1.00D+00 WtEn= 0.00D+00
 Coeff-Com:  0.139D-03-0.270D-03-0.172D-02-0.377D-02-0.154D-01 0.635D-01
 Coeff-Com:  0.297D+00 0.661D+00
 Coeff:      0.139D-03-0.270D-03-0.172D-02-0.377D-02-0.154D-01 0.635D-01
 Coeff:      0.297D+00 0.661D+00
 Gap=     0.333 Goal=   None    Shift=    0.000
 RMSDP=6.69D-07 MaxDP=2.62D-05 DE=-2.52D-08 OVMax= 1.60D-05

 Cycle   9  Pass 1  IDiag  1:
 RMSU=  3.40D-07    CP:  9.60D-01  9.39D-01  1.00D+00  6.90D-01  9.43D-01
                    CP:  1.15D+00  9.80D-01  8.59D-01
 E= -269.528848314018     Delta-E=       -0.000000003103 Rises=F Damp=F
 DIIS: error= 8.10D-07 at cycle   9 NSaved=   9.
 NSaved= 9 IEnMin= 9 EnMin= -269.528848314018     IErMin= 9 ErrMin= 8.10D-07
 ErrMax= 8.10D-07  0.00D+00 EMaxC= 1.00D-01 BMatC= 2.29D-10 BMatP= 4.23D-09
 IDIUse=1 WtCom= 1.00D+00 WtEn= 0.00D+00
 Coeff-Com: -0.120D-05 0.703D-05-0.842D-04-0.309D-03-0.252D-02-0.838D-02
 Coeff-Com:  0.402D-01 0.214D+00 0.757D+00
 Coeff:     -0.120D-05 0.703D-05-0.842D-04-0.309D-03-0.252D-02-0.838D-02
 Coeff:      0.402D-01 0.214D+00 0.757D+00
 Gap=     0.333 Goal=   None    Shift=    0.000
 RMSDP=1.39D-07 MaxDP=3.13D-06 DE=-3.10D-09 OVMax= 4.11D-06

 Cycle  10  Pass 1  IDiag  1:
 RMSU=  1.02D-07    CP:  9.60D-01  9.39D-01  1.00D+00  6.90D-01  9.42D-01
                    CP:  1.15D+00  9.92D-01  9.20D-01  1.00D+00
 E= -269.528848314208     Delta-E=       -0.000000000190 Rises=F Damp=F
 DIIS: error= 3.30D-07 at cycle  10 NSaved=  10.
 NSaved=10 IEnMin=10 EnMin= -269.528848314208     IErMin=10 ErrMin= 3.30D-07
 ErrMax= 3.30D-07  0.00D+00 EMaxC= 1.00D-01 BMatC= 3.22D-11 BMatP= 2.29D-10
 IDIUse=1 WtCom= 1.00D+00 WtEn= 0.00D+00
 Coeff-Com: -0.137D-04 0.284D-04 0.132D-03 0.249D-03 0.561D-03-0.920D-02
 Coeff-Com: -0.180D-01 0.537D-02 0.304D+00 0.717D+00
 Coeff:     -0.137D-04 0.284D-04 0.132D-03 0.249D-03 0.561D-03-0.920D-02
 Coeff:     -0.180D-01 0.537D-02 0.304D+00 0.717D+00
 Gap=     0.333 Goal=   None    Shift=    0.000
 RMSDP=4.79D-08 MaxDP=9.12D-07 DE=-1.90D-10 OVMax= 1.75D-06

 Cycle  11  Pass 1  IDiag  1:
 RMSU=  2.78D-08    CP:  9.60D-01  9.39D-01  1.00D+00  6.90D-01  9.42D-01
                    CP:  1.15D+00  9.98D-01  9.34D-01  1.06D+00  9.55D-01
 E= -269.528848314243     Delta-E=       -0.000000000035 Rises=F Damp=F
 DIIS: error= 5.01D-08 at cycle  11 NSaved=  11.
 NSaved=11 IEnMin=11 EnMin= -269.528848314243     IErMin=11 ErrMin= 5.01D-08
 ErrMax= 5.01D-08  0.00D+00 EMaxC= 1.00D-01 BMatC= 5.21D-13 BMatP= 3.22D-11
 IDIUse=1 WtCom= 1.00D+00 WtEn= 0.00D+00
 Coeff-Com: -0.549D-06 0.139D-05 0.150D-04 0.286D-04 0.155D-03-0.398D-04
 Coeff-Com: -0.344D-02-0.116D-01-0.197D-01 0.446D-01 0.990D+00
 Coeff:     -0.549D-06 0.139D-05 0.150D-04 0.286D-04 0.155D-03-0.398D-04
 Coeff:     -0.344D-02-0.116D-01-0.197D-01 0.446D-01 0.990D+00
 Gap=     0.333 Goal=   None    Shift=    0.000
 RMSDP=1.64D-08 MaxDP=6.49D-07 DE=-3.46D-11 OVMax= 6.29D-07

 Cycle  12  Pass 1  IDiag  1:
 RMSU=  7.75D-09    CP:  9.60D-01  9.39D-01  1.00D+00  6.90D-01  9.42D-01
                    CP:  1.15D+00  1.00D+00  9.36D-01  1.07D+00  1.02D+00
                    CP:  1.11D+00
 E= -269.528848314246     Delta-E=       -0.000000000003 Rises=F Damp=F
 DIIS: error= 1.29D-08 at cycle  12 NSaved=  12.
 NSaved=12 IEnMin=12 EnMin= -269.528848314246     IErMin=12 ErrMin= 1.29D-08
 ErrMax= 1.29D-08  0.00D+00 EMaxC= 1.00D-01 BMatC= 3.88D-14 BMatP= 5.21D-13
 IDIUse=1 WtCom= 1.00D+00 WtEn= 0.00D+00
 Coeff-Com:  0.854D-06-0.166D-05-0.623D-05-0.131D-04-0.257D-04 0.524D-03
 Coeff-Com:  0.664D-03-0.190D-02-0.205D-01-0.362D-01 0.147D+00 0.910D+00
 Coeff:      0.854D-06-0.166D-05-0.623D-05-0.131D-04-0.257D-04 0.524D-03
 Coeff:      0.664D-03-0.190D-02-0.205D-01-0.362D-01 0.147D+00 0.910D+00
 Gap=     0.333 Goal=   None    Shift=    0.000
 RMSDP=3.39D-09 MaxDP=7.22D-08 DE=-2.84D-12 OVMax= 1.69D-07

 SCF Done:  E(RM062X) =  -269.528848314     A.U. after   12 cycles
            NFock= 12  Conv=0.34D-08     -V/T= 2.0039
 KE= 2.684909176014D+02 PE=-1.008286348170D+03 EE= 2.819738446216D+02
 Leave Link  502 at Mon Nov 10 19:51:32 2025, MaxMem=    33554432 cpu:        24.9
 (Enter /opt/programs/gaussian/g09/d_pgi133/l601.exe)
 Copying SCF densities to generalized density rwf, IOpCl= 0 IROHF=0.

 **********************************************************************

            Population analysis using the SCF density.

 **********************************************************************

 Orbital symmetries:
       Occupied  (A) (A) (A) (A) (A) (A) (A) (A) (A) (A) (A) (A)
                 (A) (A) (A) (A) (A) (A) (A) (A) (A)
       Virtual   (A) (A) (A) (A) (A) (A) (A) (A) (A) (A) (A) (A)
                 (A) (A) (A) (A) (A) (A) (A) (A) (A) (A) (A) (A)
                 (A) (A) (A) (A) (A) (A) (A) (A) (A) (A) (A) (A)
                 (A) (A) (A) (A) (A) (A) (A) (A) (A) (A) (A) (A)
                 (A) (A) (A) (A) (A) (A) (A) (A) (A) (A) (A) (A)
                 (A) (A) (A) (A) (A) (A) (A) (A) (A) (A) (A) (A)
                 (A) (A) (A) (A) (A) (A) (A) (A) (A) (A) (A) (A)
                 (A) (A) (A) (A) (A) (A) (A) (A) (A) (A) (A) (A)
                 (A) (A) (A) (A) (A) (A) (A) (A) (A) (A) (A) (A)
                 (A) (A) (A) (A) (A) (A) (A) (A) (A) (A) (A) (A)
                 (A) (A) (A) (A) (A) (A) (A) (A) (A) (A) (A) (A)
                 (A) (A) (A) (A) (A) (A) (A) (A) (A) (A) (A) (A)
                 (A)
 The electronic state is 1-A.
 Alpha  occ. eigenvalues --  -19.63011 -19.61784 -10.59429 -10.57727 -10.53791
 Alpha  occ. eigenvalues --   -1.15209  -1.13841  -0.87369  -0.76339  -0.68080
 Alpha  occ. eigenvalues --   -0.60610  -0.58526  -0.53134  -0.51305  -0.50066
 Alpha  occ. eigenvalues --   -0.45164  -0.43446  -0.42286  -0.38290  -0.36005
 Alpha  occ. eigenvalues --   -0.34149
 Alpha virt. eigenvalues --   -0.00892   0.00352   0.01498   0.02057   0.03634
 Alpha virt. eigenvalues --    0.04491   0.05322   0.05787   0.08008   0.09411
 Alpha virt. eigenvalues --    0.09762   0.11653   0.12032   0.12215   0.13186
 Alpha virt. eigenvalues --    0.13359   0.14483   0.15368   0.16746   0.17058
 Alpha virt. eigenvalues --    0.19962   0.20180   0.21652   0.22454   0.23430
 Alpha virt. eigenvalues --    0.24449   0.26114   0.26855   0.27798   0.28905
 Alpha virt. eigenvalues --    0.29413   0.31126   0.31791   0.33283   0.33678
 Alpha virt. eigenvalues --    0.34350   0.35478   0.39733   0.40465   0.42185
 Alpha virt. eigenvalues --    0.47423   0.49074   0.51128   0.52527   0.57894
 Alpha virt. eigenvalues --    0.59388   0.60700   0.62900   0.66329   0.68118
 Alpha virt. eigenvalues --    0.69595   0.70379   0.72545   0.73633   0.75882
 Alpha virt. eigenvalues --    0.77878   0.78481   0.92698   0.97254   0.98353
 Alpha virt. eigenvalues --    1.02685   1.05890   1.13281   1.15616   1.19053
 Alpha virt. eigenvalues --    1.21513   1.23352   1.27664   1.30615   1.33900
 Alpha virt. eigenvalues --    1.39951   1.43960   1.45527   1.49683   1.53578
 Alpha virt. eigenvalues --    1.55293   1.60028   1.60571   1.61386   1.63858
 Alpha virt. eigenvalues --    1.65241   1.65438   1.69183   1.70071   1.74198
 Alpha virt. eigenvalues --    1.77855   1.80946   1.84280   1.86878   1.87939
 Alpha virt. eigenvalues --    1.94500   2.03239   2.03985   2.08133   2.10544
 Alpha virt. eigenvalues --    2.14812   2.17903   2.23977   2.30224   2.30598
 Alpha virt. eigenvalues --    2.37663   2.46073   2.51418   2.54811   2.54967
 Alpha virt. eigenvalues --    2.56728   2.59135   2.64209   2.65169   2.68496
 Alpha virt. eigenvalues --    2.71392   2.76764   2.82892   2.89070   2.90712
 Alpha virt. eigenvalues --    2.98784   3.02724   3.11408   3.17961   3.19367
 Alpha virt. eigenvalues --    3.24057   3.26848   3.32264   3.37547   3.44132
 Alpha virt. eigenvalues --    3.76037   3.81734   3.89844   3.91958   3.96469
 Alpha virt. eigenvalues --    4.04707   4.06548   4.17855   4.33629   5.16749
 Alpha virt. eigenvalues --    5.20110   5.49669   5.50367   5.73573   5.74983
 Alpha virt. eigenvalues --   23.89589  23.93032  23.97574  50.01322  50.03947
          Condensed to atoms (all electrons):
               1          2          3          4          5          6
     1  C    5.473938   0.408910   0.369076   0.092975  -0.035807  -0.073924
     2  H    0.408910   0.669357  -0.099769  -0.081153  -0.025127   0.022245
     3  H    0.369076  -0.099769   0.662159   0.024145   0.016910  -0.037139
     4  C    0.092975  -0.081153   0.024145   5.584948   0.342191   0.476563
     5  H   -0.035807  -0.025127   0.016910   0.342191   0.623063  -0.069550
     6  H   -0.073924   0.022245  -0.037139   0.476563  -0.069550   0.548749
     7  C   -0.032639   0.016195  -0.026119  -0.006753   0.018276  -0.059428
     8  H    0.003271  -0.000762  -0.001201   0.079471  -0.037335   0.015495
     9  H   -0.024817  -0.001973   0.004729  -0.069822   0.019324  -0.021014
    10  O    0.147906  -0.067896  -0.054852  -0.090798   0.026491  -0.010584
    11  H    0.026453  -0.002715  -0.013348  -0.014941  -0.001707   0.003956
    12  O    0.030574  -0.000316  -0.000323  -0.058676  -0.024584   0.002762
    13  H    0.004834   0.001699  -0.000670  -0.013032   0.012291  -0.005951
               7          8          9         10         11         12
     1  C   -0.032639   0.003271  -0.024817   0.147906   0.026453   0.030574
     2  H    0.016195  -0.000762  -0.001973  -0.067896  -0.002715  -0.000316
     3  H   -0.026119  -0.001201   0.004729  -0.054852  -0.013348  -0.000323
     4  C   -0.006753   0.079471  -0.069822  -0.090798  -0.014941  -0.058676
     5  H    0.018276  -0.037335   0.019324   0.026491  -0.001707  -0.024584
     6  H   -0.059428   0.015495  -0.021014  -0.010584   0.003956   0.002762
     7  C    5.540701   0.256773   0.466588  -0.018370   0.003709   0.203412
     8  H    0.256773   0.659143  -0.073447  -0.025881  -0.000012  -0.020880
     9  H    0.466588  -0.073447   0.541122   0.025548  -0.001219  -0.088212
    10  O   -0.018370  -0.025881   0.025548   8.137374   0.212624  -0.003117
    11  H    0.003709  -0.000012  -0.001219   0.212624   0.520258  -0.000082
    12  O    0.203412  -0.020880  -0.088212  -0.003117  -0.000082   7.983688
    13  H   -0.021202  -0.024575   0.020975   0.000885   0.000051   0.244946
              13
     1  C    0.004834
     2  H    0.001699
     3  H   -0.000670
     4  C   -0.013032
     5  H    0.012291
     6  H   -0.005951
     7  C   -0.021202
     8  H   -0.024575
     9  H    0.020975
    10  O    0.000885
    11  H    0.000051
    12  O    0.244946
    13  H    0.534443
 Mulliken charges:
               1
     1  C   -0.390749
     2  H    0.161306
     3  H    0.156402
     4  C   -0.265117
     5  H    0.135563
     6  H    0.207820
     7  C   -0.341143
     8  H    0.169941
     9  H    0.202219
    10  O   -0.279331
    11  H    0.266975
    12  O   -0.269192
    13  H    0.245307
 Sum of Mulliken charges =   0.00000
 Mulliken charges with hydrogens summed into heavy atoms:
               1
     1  C   -0.073042
     4  C    0.078266
     7  C    0.031017
    10  O   -0.012356
    12  O   -0.023885
 Electronic spatial extent (au):  <R**2>=            550.3250
 Charge=              0.0000 electrons
 Dipole moment (field-independent basis, Debye):
    X=             -2.2865    Y=              2.1331    Z=              1.6683  Tot=              3.5442
 Quadrupole moment (field-independent basis, Debye-Ang):
   XX=            -29.1161   YY=            -32.0408   ZZ=            -32.2534
   XY=              3.0411   XZ=              2.0741   YZ=              0.1120
 Traceless Quadrupole moment (field-independent basis, Debye-Ang):
   XX=              2.0206   YY=             -0.9040   ZZ=             -1.1166
   XY=              3.0411   XZ=              2.0741   YZ=              0.1120
 Octapole moment (field-independent basis, Debye-Ang**2):
  XXX=            -30.0987  YYY=             -2.6674  ZZZ=              0.4028  XYY=              1.0146
  XXY=              5.7015  XXZ=              9.8434  XZZ=              0.9215  YZZ=             -0.1894
  YYZ=              0.0275  XYZ=              2.5279
 Hexadecapole moment (field-independent basis, Debye-Ang**3):
 XXXX=           -423.9374 YYYY=           -129.4340 ZZZZ=            -59.4271 XXXY=             55.9301
 XXXZ=             17.7076 YYYX=              7.3447 YYYZ=              2.5114 ZZZX=              0.8799
 ZZZY=             -0.3290 XXYY=            -96.3523 XXZZ=            -94.1587 YYZZ=            -31.7100
 XXYZ=              1.0054 YYXZ=              1.1984 ZZXY=              0.7941
 N-N= 1.882927376324D+02 E-N=-1.008286348840D+03  KE= 2.684909176014D+02
 No NMR shielding tensors so no spin-rotation constants.
 Leave Link  601 at Mon Nov 10 19:51:32 2025, MaxMem=    33554432 cpu:         0.1
 (Enter /opt/programs/gaussian/g09/d_pgi133/l9999.exe)
 1\1\GINC-EXADE5\SP\RM062X\6-311++G(d,p)\C3H8O2\APINTO\10-Nov-2025\0\\#
 p M062X/6-311++G(d,p)\\SP\\0,1\C,0,1.438598,-0.225876,-0.03846\H,0,1.5
 50991,-1.070522,0.662029\H,0,2.12577,-0.408688,-0.878539\C,0,-0.003432
 ,-0.178808,-0.550125\H,0,-0.333113,-1.206164,-0.756833\H,0,-0.0465,0.3
 64524,-1.501386\C,0,-0.979029,0.508676,0.410437\H,0,-0.968431,0.008869
 ,1.393029\H,0,-0.666855,1.540895,0.572784\O,0,1.731483,1.00056,0.62482
 6\H,0,2.651192,0.970818,0.91563\O,0,-2.297628,0.571809,-0.12394\H,0,-2
 .615419,-0.334798,-0.226717\\Version=ES64L-G09RevD.01\State=1-A\HF=-26
 9.5288483\RMSD=3.391e-09\Dipole=0.8916066,-1.0707666,0.0531582\Quadrup
 ole=1.4680147,-0.689921,-0.7780937,2.6927233,0.4769458,0.3155248\PG=C0
 1 [X(C3H8O2)]\\@


 ... SUBJECTS WHICH DISCLOSE THEIR FULL POWER, MEANING AND BEAUTY AS SOON
 AS THEY ARE PRESENTED TO THE MIND HAVE VERY LITTLE OF THOSE QUALITIES
 TO DISCLOSE.
                           -- CHARLES DUTTON (1882)
 Job cpu time:       0 days  0 hours  0 minutes 26.6 seconds.
 File lengths (MBytes):  RWF=     16 Int=      0 D2E=      0 Chk=      2 Scr=      1
 Normal termination of Gaussian 09 at Mon Nov 10 19:51:32 2025.
