 Entering Gaussian System, Link 0=g09
 Input=xbs.com
 Output=xbs.log
 Initial command:
 /opt/programs/gaussian/g09/d_pgi133/l1.exe "/scratch/users/apinto/lixo/Gau-1271287.inp" -scrdir="/scratch/users/apinto/lixo/"
 Entering Link 1 = /opt/programs/gaussian/g09/d_pgi133/l1.exe PID=   1271289.
  
 Copyright (c) 1988,1990,1992,1993,1995,1998,2003,2009,2013,
            Gaussian, Inc.  All Rights Reserved.
  
 This is part of the Gaussian(R) 09 program.  It is based on
 the Gaussian(R) 03 system (copyright 2003, Gaussian, Inc.),
 the Gaussian(R) 98 system (copyright 1998, Gaussian, Inc.),
 the Gaussian(R) 94 system (copyright 1995, Gaussian, Inc.),
 the Gaussian 92(TM) system (copyright 1992, Gaussian, Inc.),
 the Gaussian 90(TM) system (copyright 1990, Gaussian, Inc.),
 the Gaussian 88(TM) system (copyright 1988, Gaussian, Inc.),
 the Gaussian 86(TM) system (copyright 1986, Carnegie Mellon
 University), and the Gaussian 82(TM) system (copyright 1983,
 Carnegie Mellon University). Gaussian is a federally registered
 trademark of Gaussian, Inc.
  
 This software contains proprietary and confidential information,
 including trade secrets, belonging to Gaussian, Inc.
  
 This software is provided under written license and may be
 used, copied, transmitted, or stored only in accord with that
 written license.
  
 The following legend is applicable only to US Government
 contracts under FAR:
  
                    RESTRICTED RIGHTS LEGEND
  
 Use, reproduction and disclosure by the US Government is
 subject to restrictions as set forth in subparagraphs (a)
 and (c) of the Commercial Computer Software - Restricted
 Rights clause in FAR 52.227-19.
  
 Gaussian, Inc.
 340 Quinnipiac St., Bldg. 40, Wallingford CT 06492
  
  
 ---------------------------------------------------------------
 Warning -- This program may not be used in any manner that
 competes with the business of Gaussian, Inc. or will provide
 assistance to any competitor of Gaussian, Inc.  The licensee
 of this program is prohibited from giving any competitor of
 Gaussian, Inc. access to this program.  By using this program,
 the user acknowledges that Gaussian, Inc. is engaged in the
 business of creating and licensing software in the field of
 computational chemistry and represents and warrants to the
 licensee that it is not a competitor of Gaussian, Inc. and that
 it will not use this program in any manner prohibited above.
 ---------------------------------------------------------------
  

 Cite this work as:
 Gaussian 09, Revision D.01,
 M. J. Frisch, G. W. Trucks, H. B. Schlegel, G. E. Scuseria, 
 M. A. Robb, J. R. Cheeseman, G. Scalmani, V. Barone, B. Mennucci, 
 G. A. Petersson, H. Nakatsuji, M. Caricato, X. Li, H. P. Hratchian, 
 A. F. Izmaylov, J. Bloino, G. Zheng, J. L. Sonnenberg, M. Hada, 
 M. Ehara, K. Toyota, R. Fukuda, J. Hasegawa, M. Ishida, T. Nakajima, 
 Y. Honda, O. Kitao, H. Nakai, T. Vreven, J. A. Montgomery, Jr., 
 J. E. Peralta, F. Ogliaro, M. Bearpark, J. J. Heyd, E. Brothers, 
 K. N. Kudin, V. N. Staroverov, T. Keith, R. Kobayashi, J. Normand, 
 K. Raghavachari, A. Rendell, J. C. Burant, S. S. Iyengar, J. Tomasi, 
 M. Cossi, N. Rega, J. M. Millam, M. Klene, J. E. Knox, J. B. Cross, 
 V. Bakken, C. Adamo, J. Jaramillo, R. Gomperts, R. E. Stratmann, 
 O. Yazyev, A. J. Austin, R. Cammi, C. Pomelli, J. W. Ochterski, 
 R. L. Martin, K. Morokuma, V. G. Zakrzewski, G. A. Voth, 
 P. Salvador, J. J. Dannenberg, S. Dapprich, A. D. Daniels, 
 O. Farkas, J. B. Foresman, J. V. Ortiz, J. Cioslowski, 
 and D. J. Fox, Gaussian, Inc., Wallingford CT, 2013.
 
 ******************************************
 Gaussian 09:  ES64L-G09RevD.01 24-Apr-2013
                10-Nov-2025 
 ******************************************
 ----------------------
 #p M062X/6-311++G(d,p)
 ----------------------
 1/38=1/1;
 2/12=2,17=6,18=5,40=1/2;
 3/5=4,6=6,7=1111,11=2,16=1,25=1,30=1,74=-55/1,2,3;
 4//1;
 5/5=2,38=5/2;
 6/7=2,8=2,9=2,10=2,28=1/1;
 99/5=1,9=1/99;
 Leave Link    1 at Mon Nov 10 19:51:32 2025, MaxMem=           0 cpu:         0.0
 (Enter /opt/programs/gaussian/g09/d_pgi133/l101.exe)
 --
 SP
 --
 Symbolic Z-matrix:
 Charge =  0 Multiplicity = 1
 C                     1.44456  -0.22415  -0.04982 
 H                     1.59192  -1.10712   0.5942 
 H                     2.12934  -0.33084  -0.90458 
 C                    -0.00637  -0.19209  -0.54705 
 H                    -0.34111  -1.22395  -0.71869 
 H                    -0.06207   0.32074  -1.51438 
 C                    -0.97509   0.52795   0.39742 
 H                    -0.95854   0.06436   1.39694 
 H                    -0.6638    1.56562   0.52139 
 O                     1.7079    0.96477   0.69071 
 H                     2.63279   0.94616   0.96555 
 O                    -2.29692   0.5699   -0.13187 
 H                    -2.61499  -0.34006  -0.1971 
 
 NAtoms=     13 NQM=       13 NQMF=       0 NMMI=      0 NMMIF=      0
                NMic=       0 NMicF=      0.
                    Isotopes and Nuclear Properties:
 (Nuclear quadrupole moments (NQMom) in fm**2, nuclear magnetic moments (NMagM)
  in nuclear magnetons)

  Atom         1           2           3           4           5           6           7           8           9          10
 IAtWgt=          12           1           1          12           1           1          12           1           1          16
 AtmWgt=  12.0000000   1.0078250   1.0078250  12.0000000   1.0078250   1.0078250  12.0000000   1.0078250   1.0078250  15.9949146
 NucSpn=           0           1           1           0           1           1           0           1           1           0
 AtZEff=   0.0000000   0.0000000   0.0000000   0.0000000   0.0000000   0.0000000   0.0000000   0.0000000   0.0000000   0.0000000
 NQMom=    0.0000000   0.0000000   0.0000000   0.0000000   0.0000000   0.0000000   0.0000000   0.0000000   0.0000000   0.0000000
 NMagM=    0.0000000   2.7928460   2.7928460   0.0000000   2.7928460   2.7928460   0.0000000   2.7928460   2.7928460   0.0000000
 AtZNuc=   6.0000000   1.0000000   1.0000000   6.0000000   1.0000000   1.0000000   6.0000000   1.0000000   1.0000000   8.0000000

  Atom        11          12          13
 IAtWgt=           1          16           1
 AtmWgt=   1.0078250  15.9949146   1.0078250
 NucSpn=           1           0           1
 AtZEff=   0.0000000   0.0000000   0.0000000
 NQMom=    0.0000000   0.0000000   0.0000000
 NMagM=    2.7928460   0.0000000   2.7928460
 AtZNuc=   1.0000000   8.0000000   1.0000000
 Leave Link  101 at Mon Nov 10 19:51:32 2025, MaxMem=    33554432 cpu:         0.0
 (Enter /opt/programs/gaussian/g09/d_pgi133/l202.exe)
                          Input orientation:                          
 ---------------------------------------------------------------------
 Center     Atomic      Atomic             Coordinates (Angstroms)
 Number     Number       Type             X           Y           Z
 ---------------------------------------------------------------------
      1          6           0        1.444562   -0.224145   -0.049817
      2          1           0        1.591922   -1.107118    0.594203
      3          1           0        2.129336   -0.330842   -0.904576
      4          6           0       -0.006365   -0.192090   -0.547050
      5          1           0       -0.341110   -1.223945   -0.718691
      6          1           0       -0.062065    0.320743   -1.514381
      7          6           0       -0.975093    0.527950    0.397419
      8          1           0       -0.958542    0.064355    1.396944
      9          1           0       -0.663803    1.565615    0.521389
     10          8           0        1.707902    0.964774    0.690712
     11          1           0        2.632785    0.946160    0.965546
     12          8           0       -2.296917    0.569900   -0.131865
     13          1           0       -2.614987   -0.340064   -0.197097
 ---------------------------------------------------------------------
                    Distance matrix (angstroms):
                    1          2          3          4          5
     1  C    0.000000
     2  H    1.102777   0.000000
     3  H    1.100415   1.771371   0.000000
     4  C    1.534098   2.166623   2.169861   0.000000
     5  H    2.153048   2.339648   2.633494   1.098289   0.000000
     6  H    2.170662   3.036542   2.366150   1.096280   1.759844
     7  C    2.573013   3.049875   3.474218   1.532616   2.171813
     8  H    2.819798   2.919179   3.871455   2.179798   2.552812
     9  H    2.823955   3.498156   3.664908   2.159471   3.069784
    10  O    1.425223   2.077379   2.097897   2.410208   3.312908
    11  H    1.952550   2.331789   2.319817   3.247872   4.048464
    12  O    3.825690   4.296817   4.582590   2.449415   2.717982
    13  H    4.063873   4.348863   4.796792   2.636147   2.494759
                    6          7          8          9         10
     6  H    0.000000
     7  C    2.128740   0.000000
     8  H    3.056995   1.101928   0.000000
     9  H    2.460926   1.090421   1.762739   0.000000
    10  O    2.899999   2.734099   2.901627   2.452481   0.000000
    11  H    3.715293   3.676201   3.723079   3.383562   0.965033
    12  O    2.639696   1.424472   2.093820   2.021200   4.107449
    13  H    2.947764   1.948371   2.334166   2.820453   4.601975
                   11         12         13
    11  H    0.000000
    12  O    5.064370   0.000000
    13  H    5.526773   0.966156   0.000000
 Stoichiometry    C3H8O2
 Framework group  C1[X(C3H8O2)]
 Deg. of freedom    33
 Full point group                 C1      NOp   1
 Largest Abelian subgroup         C1      NOp   1
 Largest concise Abelian subgroup C1      NOp   1
                         Standard orientation:                         
 ---------------------------------------------------------------------
 Center     Atomic      Atomic             Coordinates (Angstroms)
 Number     Number       Type             X           Y           Z
 ---------------------------------------------------------------------
      1          6           0       -1.435302    0.569693    0.123701
      2          1           0       -1.660610    0.822188    1.173272
      3          1           0       -2.028931    1.249526   -0.505858
      4          6           0        0.059733    0.786557   -0.143316
      5          1           0        0.396625    1.657148    0.435316
      6          1           0        0.222511    1.030024   -1.199752
      7          6           0        0.934663   -0.430817    0.175136
      8          1           0        0.808134   -0.734749    1.226735
      9          1           0        0.626128   -1.275945   -0.440966
     10          8           0       -1.758181   -0.795842   -0.125942
     11          1           0       -2.706779   -0.907877    0.011529
     12          8           0        2.304768   -0.192913   -0.133626
     13          1           0        2.615656    0.517120    0.443141
 ---------------------------------------------------------------------
 Rotational constants (GHZ):     12.6064028      2.5446661      2.2394792
 Leave Link  202 at Mon Nov 10 19:51:32 2025, MaxMem=    33554432 cpu:         0.0
 (Enter /opt/programs/gaussian/g09/d_pgi133/l301.exe)
 Standard basis: 6-311++G(d,p) (5D, 7F)
 Ernie: Thresh=  0.10000D-02 Tol=  0.10000D-05 Strict=F.
 There are   171 symmetry adapted cartesian basis functions of A   symmetry.
 There are   166 symmetry adapted basis functions of A   symmetry.
   166 basis functions,   252 primitive gaussians,   171 cartesian basis functions
    21 alpha electrons       21 beta electrons
       nuclear repulsion energy       188.3247485868 Hartrees.
 IExCor= 4336 DFT=T Ex+Corr=M062X ExCW=0 ScaHFX=  0.540000
 ScaDFX=  1.000000  1.000000  1.000000  1.000000 ScalE2=  1.000000  1.000000
 IRadAn=      0 IRanWt=     -1 IRanGd=            0 ICorTp=0 IEmpDi=  4
 NAtoms=   13 NActive=   13 NUniq=   13 SFac= 1.00D+00 NAtFMM=   60 NAOKFM=F Big=F
 Integral buffers will be    131072 words long.
 Raffenetti 2 integral format.
 Two-electron integral symmetry is turned on.
 Leave Link  301 at Mon Nov 10 19:51:32 2025, MaxMem=    33554432 cpu:         0.0
 (Enter /opt/programs/gaussian/g09/d_pgi133/l302.exe)
 NPDir=0 NMtPBC=     1 NCelOv=     1 NCel=       1 NClECP=     1 NCelD=      1
         NCelK=      1 NCelE2=     1 NClLst=     1 CellRange=     0.0.
 One-electron integrals computed using PRISM.
 NBasis=   166 RedAO= T EigKep=  4.02D-05  NBF=   166
 NBsUse=   166 1.00D-06 EigRej= -1.00D+00 NBFU=   166
 Precomputing XC quadrature grid using
 IXCGrd= 4 IRadAn=           0 IRanWt=          -1 IRanGd=           0 AccXCQ= 0.00D+00.
 Generated NRdTot=       0 NPtTot=           0 NUsed=           0 NTot=          32
 NSgBfM=   171   171   171   171   171 MxSgAt=    13 MxSgA2=    13.
 Leave Link  302 at Mon Nov 10 19:51:32 2025, MaxMem=    33554432 cpu:         0.1
 (Enter /opt/programs/gaussian/g09/d_pgi133/l303.exe)
 DipDrv:  MaxL=1.
 Leave Link  303 at Mon Nov 10 19:51:32 2025, MaxMem=    33554432 cpu:         0.0
 (Enter /opt/programs/gaussian/g09/d_pgi133/l401.exe)
 ExpMin= 3.60D-02 ExpMax= 8.59D+03 ExpMxC= 1.30D+03 IAcc=3 IRadAn=         5 AccDes= 0.00D+00
 Harris functional with IExCor= 1009 and IRadAn=       5 diagonalized for initial guess.
 HarFok:  IExCor= 1009 AccDes= 0.00D+00 IRadAn=         5 IDoV= 1 UseB2=F ITyADJ=14
 ICtDFT=  3500011 ScaDFX=  1.000000  1.000000  1.000000  1.000000
 FoFCou: FMM=F IPFlag=           0 FMFlag=      100000 FMFlg1=           0
         NFxFlg=           0 DoJE=T BraDBF=F KetDBF=T FulRan=T
         wScrn=  0.000000 ICntrl=     500 IOpCl=  0 I1Cent=   200000004 NGrid=           0
         NMat0=    1 NMatS0=      1 NMatT0=    0 NMatD0=    1 NMtDS0=    0 NMtDT0=    0
 Petite list used in FoFCou.
 Harris En= -269.440913863224    
 JPrj=0 DoOrth=F DoCkMO=F.
 Leave Link  401 at Mon Nov 10 19:51:34 2025, MaxMem=    33554432 cpu:         1.5
 (Enter /opt/programs/gaussian/g09/d_pgi133/l502.exe)
 Closed shell SCF:
 Using DIIS extrapolation, IDIIS=  1040.
 Integral symmetry usage will be decided dynamically.
 IVT=      108587 IEndB=      108587 NGot=    33554432 MDV=    33491898
 LenX=    33491898 LenY=    33462216
 Requested convergence on RMS density matrix=1.00D-08 within 128 cycles.
 Requested convergence on MAX density matrix=1.00D-06.
 Requested convergence on             energy=1.00D-06.
 No special actions if energy rises.
 Fock matrices will be formed incrementally for  20 cycles.

 Cycle   1  Pass 1  IDiag  1:
 FoFJK:  IHMeth= 1 ICntrl=       0 DoSepK=F KAlg= 0 I1Cent=   0 FoldK=F
 IRaf= 980000000 NMat=   1 IRICut=       1 DoRegI=T DoRafI=F ISym2E= 0.
 FoFCou: FMM=F IPFlag=           0 FMFlag=      100000 FMFlg1=           0
         NFxFlg=           0 DoJE=F BraDBF=F KetDBF=F FulRan=T
         wScrn=  0.000000 ICntrl=       0 IOpCl=  0 I1Cent=           0 NGrid=           0
         NMat0=    1 NMatS0=      1 NMatT0=    0 NMatD0=    1 NMtDS0=    0 NMtDT0=    0
 Symmetry not used in FoFCou.
 E= -269.358884267888    
 DIIS: error= 3.16D-02 at cycle   1 NSaved=   1.
 NSaved= 1 IEnMin= 1 EnMin= -269.358884267888     IErMin= 1 ErrMin= 3.16D-02
 ErrMax= 3.16D-02  0.00D+00 EMaxC= 1.00D-01 BMatC= 2.35D-01 BMatP= 2.35D-01
 IDIUse=3 WtCom= 6.84D-01 WtEn= 3.16D-01
 Coeff-Com:  0.100D+01
 Coeff-En:   0.100D+01
 Coeff:      0.100D+01
 Gap=     0.286 Goal=   None    Shift=    0.000
 GapD=    0.286 DampG=1.000 DampE=0.500 DampFc=0.5000 IDamp=-1.
 Damping current iteration by 5.00D-01
 RMSDP=6.71D-03 MaxDP=1.99D-01              OVMax= 1.33D-01

 Cycle   2  Pass 1  IDiag  1:
 RMSU=  3.35D-03    CP:  9.83D-01
 E= -269.439726883460     Delta-E=       -0.080842615572 Rises=F Damp=T
 DIIS: error= 6.21D-03 at cycle   2 NSaved=   2.
 NSaved= 2 IEnMin= 2 EnMin= -269.439726883460     IErMin= 2 ErrMin= 6.21D-03
 ErrMax= 6.21D-03  0.00D+00 EMaxC= 1.00D-01 BMatC= 1.54D-02 BMatP= 2.35D-01
 IDIUse=3 WtCom= 9.38D-01 WtEn= 6.21D-02
 Coeff-Com: -0.333D-01 0.103D+01
 Coeff-En:   0.000D+00 0.100D+01
 Coeff:     -0.312D-01 0.103D+01
 Gap=     0.342 Goal=   None    Shift=    0.000
 RMSDP=2.01D-03 MaxDP=7.95D-02 DE=-8.08D-02 OVMax= 7.33D-02

 Cycle   3  Pass 1  IDiag  1:
 RMSU=  1.94D-03    CP:  9.60D-01  8.86D-01
 E= -269.524965913124     Delta-E=       -0.085239029664 Rises=F Damp=F
 DIIS: error= 4.66D-03 at cycle   3 NSaved=   3.
 NSaved= 3 IEnMin= 3 EnMin= -269.524965913124     IErMin= 3 ErrMin= 4.66D-03
 ErrMax= 4.66D-03  0.00D+00 EMaxC= 1.00D-01 BMatC= 4.12D-03 BMatP= 1.54D-02
 IDIUse=3 WtCom= 9.53D-01 WtEn= 4.66D-02
 Coeff-Com: -0.777D-01 0.317D+00 0.761D+00
 Coeff-En:   0.000D+00 0.000D+00 0.100D+01
 Coeff:     -0.741D-01 0.302D+00 0.772D+00
 Gap=     0.334 Goal=   None    Shift=    0.000
 RMSDP=4.13D-04 MaxDP=1.28D-02 DE=-8.52D-02 OVMax= 1.27D-02

 Cycle   4  Pass 1  IDiag  1:
 RMSU=  3.37D-04    CP:  9.61D-01  9.57D-01  9.82D-01
 E= -269.527183303898     Delta-E=       -0.002217390774 Rises=F Damp=F
 DIIS: error= 1.97D-03 at cycle   4 NSaved=   4.
 NSaved= 4 IEnMin= 4 EnMin= -269.527183303898     IErMin= 4 ErrMin= 1.97D-03
 ErrMax= 1.97D-03  0.00D+00 EMaxC= 1.00D-01 BMatC= 7.48D-04 BMatP= 4.12D-03
 IDIUse=3 WtCom= 9.80D-01 WtEn= 1.97D-02
 Coeff-Com: -0.321D-01 0.862D-01 0.372D+00 0.574D+00
 Coeff-En:   0.000D+00 0.000D+00 0.975D-01 0.903D+00
 Coeff:     -0.315D-01 0.845D-01 0.366D+00 0.581D+00
 Gap=     0.332 Goal=   None    Shift=    0.000
 RMSDP=1.71D-04 MaxDP=5.18D-03 DE=-2.22D-03 OVMax= 4.67D-03

 Cycle   5  Pass 1  IDiag  1:
 RMSU=  9.98D-05    CP:  9.59D-01  9.38D-01  9.89D-01  6.48D-01
 E= -269.527784930145     Delta-E=       -0.000601626247 Rises=F Damp=F
 DIIS: error= 2.26D-04 at cycle   5 NSaved=   5.
 NSaved= 5 IEnMin= 5 EnMin= -269.527784930145     IErMin= 5 ErrMin= 2.26D-04
 ErrMax= 2.26D-04  0.00D+00 EMaxC= 1.00D-01 BMatC= 1.06D-05 BMatP= 7.48D-04
 IDIUse=3 WtCom= 9.98D-01 WtEn= 2.26D-03
 Coeff-Com: -0.399D-02 0.573D-02 0.529D-01 0.154D+00 0.792D+00
 Coeff-En:   0.000D+00 0.000D+00 0.000D+00 0.000D+00 0.100D+01
 Coeff:     -0.398D-02 0.572D-02 0.528D-01 0.153D+00 0.792D+00
 Gap=     0.332 Goal=   None    Shift=    0.000
 RMSDP=3.30D-05 MaxDP=7.12D-04 DE=-6.02D-04 OVMax= 5.98D-04

 Cycle   6  Pass 1  IDiag  1:
 RMSU=  2.38D-05    CP:  9.59D-01  9.34D-01  9.95D-01  6.84D-01  9.12D-01
 E= -269.527793666759     Delta-E=       -0.000008736614 Rises=F Damp=F
 DIIS: error= 2.22D-05 at cycle   6 NSaved=   6.
 NSaved= 6 IEnMin= 6 EnMin= -269.527793666759     IErMin= 6 ErrMin= 2.22D-05
 ErrMax= 2.22D-05  0.00D+00 EMaxC= 1.00D-01 BMatC= 1.26D-07 BMatP= 1.06D-05
 IDIUse=1 WtCom= 1.00D+00 WtEn= 0.00D+00
 Coeff-Com:  0.892D-03-0.228D-02-0.880D-02-0.100D-01 0.209D-01 0.999D+00
 Coeff:      0.892D-03-0.228D-02-0.880D-02-0.100D-01 0.209D-01 0.999D+00
 Gap=     0.332 Goal=   None    Shift=    0.000
 RMSDP=9.53D-06 MaxDP=4.13D-04 DE=-8.74D-06 OVMax= 1.37D-04

 Cycle   7  Pass 1  IDiag  1:
 RMSU=  4.37D-06    CP:  9.59D-01  9.32D-01  9.96D-01  6.88D-01  9.46D-01
                    CP:  1.11D+00
 E= -269.527793826627     Delta-E=       -0.000000159868 Rises=F Damp=F
 DIIS: error= 8.96D-06 at cycle   7 NSaved=   7.
 NSaved= 7 IEnMin= 7 EnMin= -269.527793826627     IErMin= 7 ErrMin= 8.96D-06
 ErrMax= 8.96D-06  0.00D+00 EMaxC= 1.00D-01 BMatC= 2.99D-08 BMatP= 1.26D-07
 IDIUse=1 WtCom= 1.00D+00 WtEn= 0.00D+00
 Coeff-Com:  0.530D-03-0.113D-02-0.591D-02-0.112D-01-0.316D-01 0.354D+00
 Coeff-Com:  0.696D+00
 Coeff:      0.530D-03-0.113D-02-0.591D-02-0.112D-01-0.316D-01 0.354D+00
 Coeff:      0.696D+00
 Gap=     0.332 Goal=   None    Shift=    0.000
 RMSDP=1.68D-06 MaxDP=3.02D-05 DE=-1.60D-07 OVMax= 3.81D-05

 Cycle   8  Pass 1  IDiag  1:
 RMSU=  8.62D-07    CP:  9.59D-01  9.32D-01  9.96D-01  6.88D-01  9.47D-01
                    CP:  1.15D+00  8.98D-01
 E= -269.527793850679     Delta-E=       -0.000000024052 Rises=F Damp=F
 DIIS: error= 3.62D-06 at cycle   8 NSaved=   8.
 NSaved= 8 IEnMin= 8 EnMin= -269.527793850679     IErMin= 8 ErrMin= 3.62D-06
 ErrMax= 3.62D-06  0.00D+00 EMaxC= 1.00D-01 BMatC= 4.08D-09 BMatP= 2.99D-08
 IDIUse=1 WtCom= 1.00D+00 WtEn= 0.00D+00
 Coeff-Com:  0.136D-03-0.265D-03-0.169D-02-0.371D-02-0.152D-01 0.609D-01
 Coeff-Com:  0.298D+00 0.662D+00
 Coeff:      0.136D-03-0.265D-03-0.169D-02-0.371D-02-0.152D-01 0.609D-01
 Coeff:      0.298D+00 0.662D+00
 Gap=     0.332 Goal=   None    Shift=    0.000
 RMSDP=6.38D-07 MaxDP=2.38D-05 DE=-2.41D-08 OVMax= 1.59D-05

 Cycle   9  Pass 1  IDiag  1:
 RMSU=  3.31D-07    CP:  9.59D-01  9.32D-01  9.96D-01  6.88D-01  9.49D-01
                    CP:  1.15D+00  9.82D-01  8.56D-01
 E= -269.527793853705     Delta-E=       -0.000000003026 Rises=F Damp=F
 DIIS: error= 8.21D-07 at cycle   9 NSaved=   9.
 NSaved= 9 IEnMin= 9 EnMin= -269.527793853705     IErMin= 9 ErrMin= 8.21D-07
 ErrMax= 8.21D-07  0.00D+00 EMaxC= 1.00D-01 BMatC= 2.28D-10 BMatP= 4.08D-09
 IDIUse=1 WtCom= 1.00D+00 WtEn= 0.00D+00
 Coeff-Com: -0.132D-05 0.717D-05-0.823D-04-0.304D-03-0.249D-02-0.866D-02
 Coeff-Com:  0.414D-01 0.217D+00 0.753D+00
 Coeff:     -0.132D-05 0.717D-05-0.823D-04-0.304D-03-0.249D-02-0.866D-02
 Coeff:      0.414D-01 0.217D+00 0.753D+00
 Gap=     0.332 Goal=   None    Shift=    0.000
 RMSDP=1.36D-07 MaxDP=3.13D-06 DE=-3.03D-09 OVMax= 4.04D-06

 Cycle  10  Pass 1  IDiag  1:
 RMSU=  9.98D-08    CP:  9.59D-01  9.32D-01  9.96D-01  6.88D-01  9.48D-01
                    CP:  1.15D+00  9.93D-01  9.18D-01  1.00D+00
 E= -269.527793853884     Delta-E=       -0.000000000179 Rises=F Damp=F
 DIIS: error= 3.22D-07 at cycle  10 NSaved=  10.
 NSaved=10 IEnMin=10 EnMin= -269.527793853884     IErMin=10 ErrMin= 3.22D-07
 ErrMax= 3.22D-07  0.00D+00 EMaxC= 1.00D-01 BMatC= 3.27D-11 BMatP= 2.28D-10
 IDIUse=1 WtCom= 1.00D+00 WtEn= 0.00D+00
 Coeff-Com: -0.139D-04 0.286D-04 0.133D-03 0.253D-03 0.582D-03-0.924D-02
 Coeff-Com: -0.184D-01 0.581D-02 0.306D+00 0.715D+00
 Coeff:     -0.139D-04 0.286D-04 0.133D-03 0.253D-03 0.582D-03-0.924D-02
 Coeff:     -0.184D-01 0.581D-02 0.306D+00 0.715D+00
 Gap=     0.332 Goal=   None    Shift=    0.000
 RMSDP=4.85D-08 MaxDP=9.61D-07 DE=-1.79D-10 OVMax= 1.74D-06

 Cycle  11  Pass 1  IDiag  1:
 RMSU=  2.73D-08    CP:  9.59D-01  9.32D-01  9.96D-01  6.88D-01  9.48D-01
                    CP:  1.15D+00  1.00D+00  9.31D-01  1.06D+00  9.44D-01
 E= -269.527793853918     Delta-E=       -0.000000000034 Rises=F Damp=F
 DIIS: error= 4.74D-08 at cycle  11 NSaved=  11.
 NSaved=11 IEnMin=11 EnMin= -269.527793853918     IErMin=11 ErrMin= 4.74D-08
 ErrMax= 4.74D-08  0.00D+00 EMaxC= 1.00D-01 BMatC= 4.80D-13 BMatP= 3.27D-11
 IDIUse=1 WtCom= 1.00D+00 WtEn= 0.00D+00
 Coeff-Com: -0.303D-06 0.903D-06 0.124D-04 0.234D-04 0.140D-03 0.105D-03
 Coeff-Com: -0.317D-02-0.114D-01-0.232D-01 0.338D-01 0.100D+01
 Coeff:     -0.303D-06 0.903D-06 0.124D-04 0.234D-04 0.140D-03 0.105D-03
 Coeff:     -0.317D-02-0.114D-01-0.232D-01 0.338D-01 0.100D+01
 Gap=     0.332 Goal=   None    Shift=    0.000
 RMSDP=1.54D-08 MaxDP=5.85D-07 DE=-3.43D-11 OVMax= 6.25D-07

 Cycle  12  Pass 1  IDiag  1:
 RMSU=  7.49D-09    CP:  9.59D-01  9.32D-01  9.96D-01  6.88D-01  9.48D-01
                    CP:  1.15D+00  1.00D+00  9.33D-01  1.08D+00  1.01D+00
                    CP:  1.12D+00
 E= -269.527793853914     Delta-E=        0.000000000004 Rises=F Damp=F
 DIIS: error= 1.21D-08 at cycle  12 NSaved=  12.
 NSaved=12 IEnMin=11 EnMin= -269.527793853918     IErMin=12 ErrMin= 1.21D-08
 ErrMax= 1.21D-08  0.00D+00 EMaxC= 1.00D-01 BMatC= 3.48D-14 BMatP= 4.80D-13
 IDIUse=1 WtCom= 1.00D+00 WtEn= 0.00D+00
 Coeff-Com:  0.842D-06-0.164D-05-0.620D-05-0.132D-04-0.267D-04 0.513D-03
 Coeff-Com:  0.680D-03-0.182D-02-0.201D-01-0.359D-01 0.141D+00 0.915D+00
 Coeff:      0.842D-06-0.164D-05-0.620D-05-0.132D-04-0.267D-04 0.513D-03
 Coeff:      0.680D-03-0.182D-02-0.201D-01-0.359D-01 0.141D+00 0.915D+00
 Gap=     0.332 Goal=   None    Shift=    0.000
 RMSDP=3.20D-09 MaxDP=7.17D-08 DE= 3.98D-12 OVMax= 1.62D-07

 SCF Done:  E(RM062X) =  -269.527793854     A.U. after   12 cycles
            NFock= 12  Conv=0.32D-08     -V/T= 2.0039
 KE= 2.684895182773D+02 PE=-1.008358489470D+03 EE= 2.820164287519D+02
 Leave Link  502 at Mon Nov 10 19:51:59 2025, MaxMem=    33554432 cpu:        24.9
 (Enter /opt/programs/gaussian/g09/d_pgi133/l601.exe)
 Copying SCF densities to generalized density rwf, IOpCl= 0 IROHF=0.

 **********************************************************************

            Population analysis using the SCF density.

 **********************************************************************

 Orbital symmetries:
       Occupied  (A) (A) (A) (A) (A) (A) (A) (A) (A) (A) (A) (A)
                 (A) (A) (A) (A) (A) (A) (A) (A) (A)
       Virtual   (A) (A) (A) (A) (A) (A) (A) (A) (A) (A) (A) (A)
                 (A) (A) (A) (A) (A) (A) (A) (A) (A) (A) (A) (A)
                 (A) (A) (A) (A) (A) (A) (A) (A) (A) (A) (A) (A)
                 (A) (A) (A) (A) (A) (A) (A) (A) (A) (A) (A) (A)
                 (A) (A) (A) (A) (A) (A) (A) (A) (A) (A) (A) (A)
                 (A) (A) (A) (A) (A) (A) (A) (A) (A) (A) (A) (A)
                 (A) (A) (A) (A) (A) (A) (A) (A) (A) (A) (A) (A)
                 (A) (A) (A) (A) (A) (A) (A) (A) (A) (A) (A) (A)
                 (A) (A) (A) (A) (A) (A) (A) (A) (A) (A) (A) (A)
                 (A) (A) (A) (A) (A) (A) (A) (A) (A) (A) (A) (A)
                 (A) (A) (A) (A) (A) (A) (A) (A) (A) (A) (A) (A)
                 (A) (A) (A) (A) (A) (A) (A) (A) (A) (A) (A) (A)
                 (A)
 The electronic state is 1-A.
 Alpha  occ. eigenvalues --  -19.63007 -19.61750 -10.59430 -10.57696 -10.53788
 Alpha  occ. eigenvalues --   -1.15198  -1.13804  -0.87272  -0.76345  -0.68059
 Alpha  occ. eigenvalues --   -0.60589  -0.58393  -0.53302  -0.51288  -0.49913
 Alpha  occ. eigenvalues --   -0.45070  -0.43453  -0.42284  -0.38367  -0.35882
 Alpha  occ. eigenvalues --   -0.34096
 Alpha virt. eigenvalues --   -0.00897   0.00361   0.01503   0.02052   0.03633
 Alpha virt. eigenvalues --    0.04472   0.05369   0.05795   0.07888   0.09402
 Alpha virt. eigenvalues --    0.09908   0.11697   0.12031   0.12243   0.13240
 Alpha virt. eigenvalues --    0.13381   0.14554   0.15280   0.16712   0.17022
 Alpha virt. eigenvalues --    0.19703   0.20038   0.21627   0.22571   0.23360
 Alpha virt. eigenvalues --    0.24429   0.26018   0.26893   0.28024   0.28896
 Alpha virt. eigenvalues --    0.29788   0.31136   0.31776   0.33451   0.33788
 Alpha virt. eigenvalues --    0.34389   0.35534   0.39859   0.40540   0.42549
 Alpha virt. eigenvalues --    0.47462   0.48877   0.51105   0.52400   0.57810
 Alpha virt. eigenvalues --    0.59495   0.60817   0.62825   0.66579   0.68155
 Alpha virt. eigenvalues --    0.69460   0.70528   0.72496   0.73266   0.75720
 Alpha virt. eigenvalues --    0.78117   0.78583   0.92543   0.96801   0.98900
 Alpha virt. eigenvalues --    1.02657   1.06066   1.13560   1.15902   1.19564
 Alpha virt. eigenvalues --    1.21643   1.23512   1.27905   1.30986   1.33716
 Alpha virt. eigenvalues --    1.39604   1.43947   1.45420   1.49992   1.53469
 Alpha virt. eigenvalues --    1.55402   1.59869   1.60392   1.61486   1.63823
 Alpha virt. eigenvalues --    1.64942   1.65225   1.69494   1.70102   1.74230
 Alpha virt. eigenvalues --    1.78470   1.81294   1.84563   1.86883   1.88651
 Alpha virt. eigenvalues --    1.94734   2.03239   2.03822   2.08566   2.10244
 Alpha virt. eigenvalues --    2.14830   2.18097   2.23025   2.30275   2.30945
 Alpha virt. eigenvalues --    2.38107   2.45929   2.51050   2.54811   2.55567
 Alpha virt. eigenvalues --    2.56280   2.59826   2.63883   2.64968   2.68541
 Alpha virt. eigenvalues --    2.71023   2.76274   2.83767   2.88945   2.90118
 Alpha virt. eigenvalues --    2.98467   3.03277   3.11487   3.17642   3.19189
 Alpha virt. eigenvalues --    3.23540   3.26538   3.32073   3.37461   3.44079
 Alpha virt. eigenvalues --    3.73970   3.81754   3.91044   3.92040   3.97010
 Alpha virt. eigenvalues --    4.04914   4.06629   4.18140   4.33477   5.16741
 Alpha virt. eigenvalues --    5.20232   5.49652   5.50513   5.73468   5.75194
 Alpha virt. eigenvalues --   23.89442  23.93090  23.97349  50.01358  50.04025
          Condensed to atoms (all electrons):
               1          2          3          4          5          6
     1  C    5.470696   0.413876   0.368139   0.078301  -0.041886  -0.067930
     2  H    0.413876   0.669504  -0.102617  -0.084756  -0.027753   0.023501
     3  H    0.368139  -0.102617   0.665554   0.030010   0.019378  -0.040392
     4  C    0.078301  -0.084756   0.030010   5.575205   0.358975   0.468508
     5  H   -0.041886  -0.027753   0.019378   0.358975   0.626786  -0.072864
     6  H   -0.067930   0.023501  -0.040392   0.468508  -0.072864   0.554647
     7  C   -0.027483   0.019171  -0.030146   0.005058   0.008683  -0.054684
     8  H    0.005221   0.000704  -0.002449   0.063118  -0.037025   0.016451
     9  H   -0.026299  -0.003786   0.006703  -0.056592   0.019975  -0.023447
    10  O    0.152943  -0.069140  -0.054940  -0.098734   0.025145  -0.007235
    11  H    0.025692  -0.001331  -0.014465  -0.013512  -0.001367   0.003796
    12  O    0.031514  -0.000078  -0.000539  -0.064800  -0.025754   0.004796
    13  H    0.004361   0.001578  -0.000551  -0.010420   0.012442  -0.006358
               7          8          9         10         11         12
     1  C   -0.027483   0.005221  -0.026299   0.152943   0.025692   0.031514
     2  H    0.019171   0.000704  -0.003786  -0.069140  -0.001331  -0.000078
     3  H   -0.030146  -0.002449   0.006703  -0.054940  -0.014465  -0.000539
     4  C    0.005058   0.063118  -0.056592  -0.098734  -0.013512  -0.064800
     5  H    0.008683  -0.037025   0.019975   0.025145  -0.001367  -0.025754
     6  H   -0.054684   0.016451  -0.023447  -0.007235   0.003796   0.004796
     7  C    5.525970   0.273520   0.457883  -0.008006   0.002759   0.205246
     8  H    0.273520   0.650979  -0.072840  -0.026626  -0.000123  -0.020212
     9  H    0.457883  -0.072840   0.543855   0.019348  -0.000932  -0.088804
    10  O   -0.008006  -0.026626   0.019348   8.137401   0.211785  -0.002934
    11  H    0.002759  -0.000123  -0.000932   0.211785   0.521452  -0.000079
    12  O    0.205246  -0.020212  -0.088804  -0.002934  -0.000079   7.987614
    13  H   -0.022867  -0.024443   0.020723   0.001019   0.000027   0.244961
              13
     1  C    0.004361
     2  H    0.001578
     3  H   -0.000551
     4  C   -0.010420
     5  H    0.012442
     6  H   -0.006358
     7  C   -0.022867
     8  H   -0.024443
     9  H    0.020723
    10  O    0.001019
    11  H    0.000027
    12  O    0.244961
    13  H    0.534122
 Mulliken charges:
               1
     1  C   -0.387146
     2  H    0.161129
     3  H    0.156317
     4  C   -0.250359
     5  H    0.135266
     6  H    0.201210
     7  C   -0.355104
     8  H    0.173726
     9  H    0.204212
    10  O   -0.280026
    11  H    0.266299
    12  O   -0.270929
    13  H    0.245406
 Sum of Mulliken charges =   0.00000
 Mulliken charges with hydrogens summed into heavy atoms:
               1
     1  C   -0.069700
     4  C    0.086117
     7  C    0.022834
    10  O   -0.013727
    12  O   -0.025524
 Electronic spatial extent (au):  <R**2>=            549.4027
 Charge=              0.0000 electrons
 Dipole moment (field-independent basis, Debye):
    X=             -2.3418    Y=              2.0680    Z=              1.6110  Tot=              3.5151
 Quadrupole moment (field-independent basis, Debye-Ang):
   XX=            -29.1581   YY=            -32.1506   ZZ=            -32.0544
   XY=              2.8419   XZ=              2.4817   YZ=              0.2616
 Traceless Quadrupole moment (field-independent basis, Debye-Ang):
   XX=              1.9629   YY=             -1.0296   ZZ=             -0.9333
   XY=              2.8419   XZ=              2.4817   YZ=              0.2616
 Octapole moment (field-independent basis, Debye-Ang**2):
  XXX=            -30.5573  YYY=             -2.7880  ZZZ=              0.4710  XYY=              0.8319
  XXY=              4.9652  XXZ=              9.9977  XZZ=              1.1654  YZZ=             -0.1363
  YYZ=              0.0337  XYZ=              2.5235
 Hexadecapole moment (field-independent basis, Debye-Ang**3):
 XXXX=           -424.4655 YYYY=           -132.1532 ZZZZ=            -57.9045 XXXY=             54.6695
 XXXZ=             20.6256 YYYX=              7.3235 YYYZ=              2.5054 ZZZX=              1.1827
 ZZZY=             -0.2501 XXYY=            -96.9826 XXZZ=            -92.5212 YYZZ=            -31.3299
 XXYZ=              1.7896 YYXZ=              1.3171 ZZXY=              0.7578
 N-N= 1.883247485868D+02 E-N=-1.008358490120D+03  KE= 2.684895182773D+02
 No NMR shielding tensors so no spin-rotation constants.
 Leave Link  601 at Mon Nov 10 19:51:59 2025, MaxMem=    33554432 cpu:         0.0
 (Enter /opt/programs/gaussian/g09/d_pgi133/l9999.exe)
 1\1\GINC-EXADE5\SP\RM062X\6-311++G(d,p)\C3H8O2\APINTO\10-Nov-2025\0\\#
 p M062X/6-311++G(d,p)\\SP\\0,1\C,0,1.444562,-0.224145,-0.049817\H,0,1.
 591922,-1.107118,0.594203\H,0,2.129336,-0.330842,-0.904576\C,0,-0.0063
 65,-0.19209,-0.54705\H,0,-0.34111,-1.223945,-0.718691\H,0,-0.062065,0.
 320743,-1.514381\C,0,-0.975093,0.52795,0.397419\H,0,-0.958542,0.064355
 ,1.396944\H,0,-0.663803,1.565615,0.521389\O,0,1.707902,0.964774,0.6907
 12\H,0,2.632785,0.94616,0.965546\O,0,-2.296917,0.5699,-0.131865\H,0,-2
 .614987,-0.340064,-0.197097\\Version=ES64L-G09RevD.01\State=1-A\HF=-26
 9.5277939\RMSD=3.195e-09\Dipole=0.908439,-1.042039,0.0377127\Quadrupol
 e=1.5084731,-0.6167987,-0.8916745,2.7686725,0.2502489,0.2269964\PG=C01
  [X(C3H8O2)]\\@


 The best way to pay for a lovely moment is to enjoy it.
 -- Richard Bach
 Job cpu time:       0 days  0 hours  0 minutes 26.6 seconds.
 File lengths (MBytes):  RWF=     16 Int=      0 D2E=      0 Chk=      2 Scr=      1
 Normal termination of Gaussian 09 at Mon Nov 10 19:51:59 2025.
