 Entering Gaussian System, Link 0=g09
 Input=xbu.com
 Output=xbu.log
 Initial command:
 /opt/programs/gaussian/g09/d_pgi133/l1.exe "/scratch/users/apinto/lixo/Gau-1271732.inp" -scrdir="/scratch/users/apinto/lixo/"
 Entering Link 1 = /opt/programs/gaussian/g09/d_pgi133/l1.exe PID=   1271734.
  
 Copyright (c) 1988,1990,1992,1993,1995,1998,2003,2009,2013,
            Gaussian, Inc.  All Rights Reserved.
  
 This is part of the Gaussian(R) 09 program.  It is based on
 the Gaussian(R) 03 system (copyright 2003, Gaussian, Inc.),
 the Gaussian(R) 98 system (copyright 1998, Gaussian, Inc.),
 the Gaussian(R) 94 system (copyright 1995, Gaussian, Inc.),
 the Gaussian 92(TM) system (copyright 1992, Gaussian, Inc.),
 the Gaussian 90(TM) system (copyright 1990, Gaussian, Inc.),
 the Gaussian 88(TM) system (copyright 1988, Gaussian, Inc.),
 the Gaussian 86(TM) system (copyright 1986, Carnegie Mellon
 University), and the Gaussian 82(TM) system (copyright 1983,
 Carnegie Mellon University). Gaussian is a federally registered
 trademark of Gaussian, Inc.
  
 This software contains proprietary and confidential information,
 including trade secrets, belonging to Gaussian, Inc.
  
 This software is provided under written license and may be
 used, copied, transmitted, or stored only in accord with that
 written license.
  
 The following legend is applicable only to US Government
 contracts under FAR:
  
                    RESTRICTED RIGHTS LEGEND
  
 Use, reproduction and disclosure by the US Government is
 subject to restrictions as set forth in subparagraphs (a)
 and (c) of the Commercial Computer Software - Restricted
 Rights clause in FAR 52.227-19.
  
 Gaussian, Inc.
 340 Quinnipiac St., Bldg. 40, Wallingford CT 06492
  
  
 ---------------------------------------------------------------
 Warning -- This program may not be used in any manner that
 competes with the business of Gaussian, Inc. or will provide
 assistance to any competitor of Gaussian, Inc.  The licensee
 of this program is prohibited from giving any competitor of
 Gaussian, Inc. access to this program.  By using this program,
 the user acknowledges that Gaussian, Inc. is engaged in the
 business of creating and licensing software in the field of
 computational chemistry and represents and warrants to the
 licensee that it is not a competitor of Gaussian, Inc. and that
 it will not use this program in any manner prohibited above.
 ---------------------------------------------------------------
  

 Cite this work as:
 Gaussian 09, Revision D.01,
 M. J. Frisch, G. W. Trucks, H. B. Schlegel, G. E. Scuseria, 
 M. A. Robb, J. R. Cheeseman, G. Scalmani, V. Barone, B. Mennucci, 
 G. A. Petersson, H. Nakatsuji, M. Caricato, X. Li, H. P. Hratchian, 
 A. F. Izmaylov, J. Bloino, G. Zheng, J. L. Sonnenberg, M. Hada, 
 M. Ehara, K. Toyota, R. Fukuda, J. Hasegawa, M. Ishida, T. Nakajima, 
 Y. Honda, O. Kitao, H. Nakai, T. Vreven, J. A. Montgomery, Jr., 
 J. E. Peralta, F. Ogliaro, M. Bearpark, J. J. Heyd, E. Brothers, 
 K. N. Kudin, V. N. Staroverov, T. Keith, R. Kobayashi, J. Normand, 
 K. Raghavachari, A. Rendell, J. C. Burant, S. S. Iyengar, J. Tomasi, 
 M. Cossi, N. Rega, J. M. Millam, M. Klene, J. E. Knox, J. B. Cross, 
 V. Bakken, C. Adamo, J. Jaramillo, R. Gomperts, R. E. Stratmann, 
 O. Yazyev, A. J. Austin, R. Cammi, C. Pomelli, J. W. Ochterski, 
 R. L. Martin, K. Morokuma, V. G. Zakrzewski, G. A. Voth, 
 P. Salvador, J. J. Dannenberg, S. Dapprich, A. D. Daniels, 
 O. Farkas, J. B. Foresman, J. V. Ortiz, J. Cioslowski, 
 and D. J. Fox, Gaussian, Inc., Wallingford CT, 2013.
 
 ******************************************
 Gaussian 09:  ES64L-G09RevD.01 24-Apr-2013
                10-Nov-2025 
 ******************************************
 ----------------------
 #p M062X/6-311++G(d,p)
 ----------------------
 1/38=1/1;
 2/12=2,17=6,18=5,40=1/2;
 3/5=4,6=6,7=1111,11=2,16=1,25=1,30=1,74=-55/1,2,3;
 4//1;
 5/5=2,38=5/2;
 6/7=2,8=2,9=2,10=2,28=1/1;
 99/5=1,9=1/99;
 Leave Link    1 at Mon Nov 10 19:52:25 2025, MaxMem=           0 cpu:         0.0
 (Enter /opt/programs/gaussian/g09/d_pgi133/l101.exe)
 --
 SP
 --
 Symbolic Z-matrix:
 Charge =  0 Multiplicity = 1
 C                     1.45632  -0.21668  -0.07129 
 H                     1.67801  -1.1632    0.44764 
 H                     2.12631  -0.16446  -0.94225 
 C                    -0.01187  -0.21638  -0.53941 
 H                    -0.35643  -1.25474  -0.6316 
 H                    -0.09235   0.2258   -1.53882 
 C                    -0.96917   0.56639   0.36824 
 H                    -0.93873   0.17582   1.39671 
 H                    -0.66319   1.61205   0.41597 
 O                     1.66877   0.88035   0.81504 
 H                     2.6001    0.88203   1.06761 
 O                    -2.29721   0.56367  -0.14805 
 H                    -2.61295  -0.34936  -0.13706 
 
 NAtoms=     13 NQM=       13 NQMF=       0 NMMI=      0 NMMIF=      0
                NMic=       0 NMicF=      0.
                    Isotopes and Nuclear Properties:
 (Nuclear quadrupole moments (NQMom) in fm**2, nuclear magnetic moments (NMagM)
  in nuclear magnetons)

  Atom         1           2           3           4           5           6           7           8           9          10
 IAtWgt=          12           1           1          12           1           1          12           1           1          16
 AtmWgt=  12.0000000   1.0078250   1.0078250  12.0000000   1.0078250   1.0078250  12.0000000   1.0078250   1.0078250  15.9949146
 NucSpn=           0           1           1           0           1           1           0           1           1           0
 AtZEff=   0.0000000   0.0000000   0.0000000   0.0000000   0.0000000   0.0000000   0.0000000   0.0000000   0.0000000   0.0000000
 NQMom=    0.0000000   0.0000000   0.0000000   0.0000000   0.0000000   0.0000000   0.0000000   0.0000000   0.0000000   0.0000000
 NMagM=    0.0000000   2.7928460   2.7928460   0.0000000   2.7928460   2.7928460   0.0000000   2.7928460   2.7928460   0.0000000
 AtZNuc=   6.0000000   1.0000000   1.0000000   6.0000000   1.0000000   1.0000000   6.0000000   1.0000000   1.0000000   8.0000000

  Atom        11          12          13
 IAtWgt=           1          16           1
 AtmWgt=   1.0078250  15.9949146   1.0078250
 NucSpn=           1           0           1
 AtZEff=   0.0000000   0.0000000   0.0000000
 NQMom=    0.0000000   0.0000000   0.0000000
 NMagM=    2.7928460   0.0000000   2.7928460
 AtZNuc=   1.0000000   8.0000000   1.0000000
 Leave Link  101 at Mon Nov 10 19:52:25 2025, MaxMem=    33554432 cpu:         0.0
 (Enter /opt/programs/gaussian/g09/d_pgi133/l202.exe)
                          Input orientation:                          
 ---------------------------------------------------------------------
 Center     Atomic      Atomic             Coordinates (Angstroms)
 Number     Number       Type             X           Y           Z
 ---------------------------------------------------------------------
      1          6           0        1.456324   -0.216678   -0.071292
      2          1           0        1.678013   -1.163204    0.447641
      3          1           0        2.126314   -0.164461   -0.942249
      4          6           0       -0.011868   -0.216375   -0.539412
      5          1           0       -0.356425   -1.254736   -0.631598
      6          1           0       -0.092349    0.225799   -1.538816
      7          6           0       -0.969166    0.566388    0.368244
      8          1           0       -0.938731    0.175819    1.396707
      9          1           0       -0.663193    1.612050    0.415970
     10          8           0        1.668768    0.880350    0.815035
     11          1           0        2.600103    0.882026    1.067610
     12          8           0       -2.297211    0.563673   -0.148049
     13          1           0       -2.612954   -0.349357   -0.137055
 ---------------------------------------------------------------------
                    Distance matrix (angstroms):
                    1          2          3          4          5
     1  C    0.000000
     2  H    1.101975   0.000000
     3  H    1.100082   1.769253   0.000000
     4  C    1.541014   2.174042   2.176418   0.000000
     5  H    2.162768   2.304793   2.729322   1.097912   0.000000
     6  H    2.178945   3.001587   2.330378   1.095812   1.756350
     7  C    2.586385   3.163123   3.439990   1.533942   2.166017
     8  H    2.836435   3.088860   3.870531   2.182074   2.549429
     9  H    2.841482   3.631017   3.575206   2.163358   3.067567
    10  O    1.426246   2.076337   2.095000   2.421130   3.279138
    11  H    1.952557   2.327569   2.314983   3.257514   4.024192
    12  O    3.834562   4.374855   4.552857   2.446310   2.703161
    13  H    4.071972   4.406429   4.810736   2.635379   2.481170
                    6          7          8          9         10
     6  H    0.000000
     7  C    2.126426   0.000000
     8  H    3.055512   1.100548   0.000000
     9  H    2.463482   1.090553   1.760831   0.000000
    10  O    3.011741   2.693862   2.762925   2.476425   0.000000
    11  H    3.804391   3.650811   3.623587   3.406856   0.964978
    12  O    2.628651   1.424875   2.093363   2.021689   4.093508
    13  H    2.940950   1.948321   2.330506   2.820376   4.555414
                   11         12         13
    11  H    0.000000
    12  O    5.055973   0.000000
    13  H    5.490308   0.966146   0.000000
 Stoichiometry    C3H8O2
 Framework group  C1[X(C3H8O2)]
 Deg. of freedom    33
 Full point group                 C1      NOp   1
 Largest Abelian subgroup         C1      NOp   1
 Largest concise Abelian subgroup C1      NOp   1
                         Standard orientation:                         
 ---------------------------------------------------------------------
 Center     Atomic      Atomic             Coordinates (Angstroms)
 Number     Number       Type             X           Y           Z
 ---------------------------------------------------------------------
      1          6           0       -1.448813    0.577576    0.077014
      2          1           0       -1.758438    0.917202    1.078581
      3          1           0       -2.005288    1.183941   -0.652942
      4          6           0        0.065137    0.804415   -0.099685
      5          1           0        0.389656    1.594689    0.589929
      6          1           0        0.279676    1.169087   -1.110521
      7          6           0        0.925151   -0.448396    0.109641
      8          1           0        0.758121   -0.873593    1.110899
      9          1           0        0.644562   -1.215802   -0.612622
     10          8           0       -1.737999   -0.811073   -0.071994
     11          1           0       -2.692869   -0.925726    0.007120
     12          8           0        2.305887   -0.177042   -0.114421
     13          1           0        2.592624    0.453556    0.559052
 ---------------------------------------------------------------------
 Rotational constants (GHZ):     12.5087060      2.5645423      2.2363239
 Leave Link  202 at Mon Nov 10 19:52:25 2025, MaxMem=    33554432 cpu:         0.0
 (Enter /opt/programs/gaussian/g09/d_pgi133/l301.exe)
 Standard basis: 6-311++G(d,p) (5D, 7F)
 Ernie: Thresh=  0.10000D-02 Tol=  0.10000D-05 Strict=F.
 There are   171 symmetry adapted cartesian basis functions of A   symmetry.
 There are   166 symmetry adapted basis functions of A   symmetry.
   166 basis functions,   252 primitive gaussians,   171 cartesian basis functions
    21 alpha electrons       21 beta electrons
       nuclear repulsion energy       188.2952292635 Hartrees.
 IExCor= 4336 DFT=T Ex+Corr=M062X ExCW=0 ScaHFX=  0.540000
 ScaDFX=  1.000000  1.000000  1.000000  1.000000 ScalE2=  1.000000  1.000000
 IRadAn=      0 IRanWt=     -1 IRanGd=            0 ICorTp=0 IEmpDi=  4
 NAtoms=   13 NActive=   13 NUniq=   13 SFac= 1.00D+00 NAtFMM=   60 NAOKFM=F Big=F
 Integral buffers will be    131072 words long.
 Raffenetti 2 integral format.
 Two-electron integral symmetry is turned on.
 Leave Link  301 at Mon Nov 10 19:52:25 2025, MaxMem=    33554432 cpu:         0.0
 (Enter /opt/programs/gaussian/g09/d_pgi133/l302.exe)
 NPDir=0 NMtPBC=     1 NCelOv=     1 NCel=       1 NClECP=     1 NCelD=      1
         NCelK=      1 NCelE2=     1 NClLst=     1 CellRange=     0.0.
 One-electron integrals computed using PRISM.
 NBasis=   166 RedAO= T EigKep=  4.10D-05  NBF=   166
 NBsUse=   166 1.00D-06 EigRej= -1.00D+00 NBFU=   166
 Precomputing XC quadrature grid using
 IXCGrd= 4 IRadAn=           0 IRanWt=          -1 IRanGd=           0 AccXCQ= 0.00D+00.
 Generated NRdTot=       0 NPtTot=           0 NUsed=           0 NTot=          32
 NSgBfM=   171   171   171   171   171 MxSgAt=    13 MxSgA2=    13.
 Leave Link  302 at Mon Nov 10 19:52:25 2025, MaxMem=    33554432 cpu:         0.1
 (Enter /opt/programs/gaussian/g09/d_pgi133/l303.exe)
 DipDrv:  MaxL=1.
 Leave Link  303 at Mon Nov 10 19:52:26 2025, MaxMem=    33554432 cpu:         0.0
 (Enter /opt/programs/gaussian/g09/d_pgi133/l401.exe)
 ExpMin= 3.60D-02 ExpMax= 8.59D+03 ExpMxC= 1.30D+03 IAcc=3 IRadAn=         5 AccDes= 0.00D+00
 Harris functional with IExCor= 1009 and IRadAn=       5 diagonalized for initial guess.
 HarFok:  IExCor= 1009 AccDes= 0.00D+00 IRadAn=         5 IDoV= 1 UseB2=F ITyADJ=14
 ICtDFT=  3500011 ScaDFX=  1.000000  1.000000  1.000000  1.000000
 FoFCou: FMM=F IPFlag=           0 FMFlag=      100000 FMFlg1=           0
         NFxFlg=           0 DoJE=T BraDBF=F KetDBF=T FulRan=T
         wScrn=  0.000000 ICntrl=     500 IOpCl=  0 I1Cent=   200000004 NGrid=           0
         NMat0=    1 NMatS0=      1 NMatT0=    0 NMatD0=    1 NMtDS0=    0 NMtDT0=    0
 Petite list used in FoFCou.
 Harris En= -269.438790489136    
 JPrj=0 DoOrth=F DoCkMO=F.
 Leave Link  401 at Mon Nov 10 19:52:27 2025, MaxMem=    33554432 cpu:         1.5
 (Enter /opt/programs/gaussian/g09/d_pgi133/l502.exe)
 Closed shell SCF:
 Using DIIS extrapolation, IDIIS=  1040.
 Integral symmetry usage will be decided dynamically.
 IVT=      108587 IEndB=      108587 NGot=    33554432 MDV=    33491898
 LenX=    33491898 LenY=    33462216
 Requested convergence on RMS density matrix=1.00D-08 within 128 cycles.
 Requested convergence on MAX density matrix=1.00D-06.
 Requested convergence on             energy=1.00D-06.
 No special actions if energy rises.
 Fock matrices will be formed incrementally for  20 cycles.

 Cycle   1  Pass 1  IDiag  1:
 FoFJK:  IHMeth= 1 ICntrl=       0 DoSepK=F KAlg= 0 I1Cent=   0 FoldK=F
 IRaf= 980000000 NMat=   1 IRICut=       1 DoRegI=T DoRafI=F ISym2E= 0.
 FoFCou: FMM=F IPFlag=           0 FMFlag=      100000 FMFlg1=           0
         NFxFlg=           0 DoJE=F BraDBF=F KetDBF=F FulRan=T
         wScrn=  0.000000 ICntrl=       0 IOpCl=  0 I1Cent=           0 NGrid=           0
         NMat0=    1 NMatS0=      1 NMatT0=    0 NMatD0=    1 NMtDS0=    0 NMtDT0=    0
 Symmetry not used in FoFCou.
 E= -269.357714895085    
 DIIS: error= 2.76D-02 at cycle   1 NSaved=   1.
 NSaved= 1 IEnMin= 1 EnMin= -269.357714895085     IErMin= 1 ErrMin= 2.76D-02
 ErrMax= 2.76D-02  0.00D+00 EMaxC= 1.00D-01 BMatC= 2.34D-01 BMatP= 2.34D-01
 IDIUse=3 WtCom= 7.24D-01 WtEn= 2.76D-01
 Coeff-Com:  0.100D+01
 Coeff-En:   0.100D+01
 Coeff:      0.100D+01
 Gap=     0.292 Goal=   None    Shift=    0.000
 GapD=    0.292 DampG=1.000 DampE=0.500 DampFc=0.5000 IDamp=-1.
 Damping current iteration by 5.00D-01
 RMSDP=6.40D-03 MaxDP=1.65D-01              OVMax= 1.34D-01

 Cycle   2  Pass 1  IDiag  1:
 RMSU=  3.19D-03    CP:  9.82D-01
 E= -269.438180968158     Delta-E=       -0.080466073074 Rises=F Damp=T
 DIIS: error= 7.28D-03 at cycle   2 NSaved=   2.
 NSaved= 2 IEnMin= 2 EnMin= -269.438180968158     IErMin= 2 ErrMin= 7.28D-03
 ErrMax= 7.28D-03  0.00D+00 EMaxC= 1.00D-01 BMatC= 1.54D-02 BMatP= 2.34D-01
 IDIUse=3 WtCom= 9.27D-01 WtEn= 7.28D-02
 Coeff-Com: -0.348D-01 0.103D+01
 Coeff-En:   0.000D+00 0.100D+01
 Coeff:     -0.323D-01 0.103D+01
 Gap=     0.341 Goal=   None    Shift=    0.000
 RMSDP=1.98D-03 MaxDP=8.09D-02 DE=-8.05D-02 OVMax= 7.17D-02

 Cycle   3  Pass 1  IDiag  1:
 RMSU=  1.91D-03    CP:  9.56D-01  8.96D-01
 E= -269.522819815734     Delta-E=       -0.084638847575 Rises=F Damp=F
 DIIS: error= 4.87D-03 at cycle   3 NSaved=   3.
 NSaved= 3 IEnMin= 3 EnMin= -269.522819815734     IErMin= 3 ErrMin= 4.87D-03
 ErrMax= 4.87D-03  0.00D+00 EMaxC= 1.00D-01 BMatC= 4.07D-03 BMatP= 1.54D-02
 IDIUse=3 WtCom= 9.51D-01 WtEn= 4.87D-02
 Coeff-Com: -0.780D-01 0.316D+00 0.762D+00
 Coeff-En:   0.000D+00 0.000D+00 0.100D+01
 Coeff:     -0.742D-01 0.301D+00 0.773D+00
 Gap=     0.333 Goal=   None    Shift=    0.000
 RMSDP=3.95D-04 MaxDP=9.84D-03 DE=-8.46D-02 OVMax= 1.28D-02

 Cycle   4  Pass 1  IDiag  1:
 RMSU=  3.30D-04    CP:  9.57D-01  9.62D-01  9.76D-01
 E= -269.525006252280     Delta-E=       -0.002186436546 Rises=F Damp=F
 DIIS: error= 1.77D-03 at cycle   4 NSaved=   4.
 NSaved= 4 IEnMin= 4 EnMin= -269.525006252280     IErMin= 4 ErrMin= 1.77D-03
 ErrMax= 1.77D-03  0.00D+00 EMaxC= 1.00D-01 BMatC= 7.36D-04 BMatP= 4.07D-03
 IDIUse=3 WtCom= 9.82D-01 WtEn= 1.77D-02
 Coeff-Com: -0.320D-01 0.860D-01 0.372D+00 0.574D+00
 Coeff-En:   0.000D+00 0.000D+00 0.967D-01 0.903D+00
 Coeff:     -0.314D-01 0.845D-01 0.367D+00 0.580D+00
 Gap=     0.331 Goal=   None    Shift=    0.000
 RMSDP=1.67D-04 MaxDP=4.37D-03 DE=-2.19D-03 OVMax= 4.66D-03

 Cycle   5  Pass 1  IDiag  1:
 RMSU=  9.89D-05    CP:  9.55D-01  9.43D-01  9.86D-01  6.51D-01
 E= -269.525597451947     Delta-E=       -0.000591199668 Rises=F Damp=F
 DIIS: error= 1.96D-04 at cycle   5 NSaved=   5.
 NSaved= 5 IEnMin= 5 EnMin= -269.525597451947     IErMin= 5 ErrMin= 1.96D-04
 ErrMax= 1.96D-04  0.00D+00 EMaxC= 1.00D-01 BMatC= 1.05D-05 BMatP= 7.36D-04
 IDIUse=3 WtCom= 9.98D-01 WtEn= 1.96D-03
 Coeff-Com: -0.399D-02 0.580D-02 0.537D-01 0.154D+00 0.790D+00
 Coeff-En:   0.000D+00 0.000D+00 0.000D+00 0.000D+00 0.100D+01
 Coeff:     -0.398D-02 0.579D-02 0.536D-01 0.154D+00 0.791D+00
 Gap=     0.331 Goal=   None    Shift=    0.000
 RMSDP=3.05D-05 MaxDP=7.21D-04 DE=-5.91D-04 OVMax= 5.92D-04

 Cycle   6  Pass 1  IDiag  1:
 RMSU=  2.22D-05    CP:  9.55D-01  9.40D-01  9.92D-01  6.89D-01  9.23D-01
 E= -269.525606104069     Delta-E=       -0.000008652122 Rises=F Damp=F
 DIIS: error= 2.38D-05 at cycle   6 NSaved=   6.
 NSaved= 6 IEnMin= 6 EnMin= -269.525606104069     IErMin= 6 ErrMin= 2.38D-05
 ErrMax= 2.38D-05  0.00D+00 EMaxC= 1.00D-01 BMatC= 1.22D-07 BMatP= 1.05D-05
 IDIUse=1 WtCom= 1.00D+00 WtEn= 0.00D+00
 Coeff-Com:  0.871D-03-0.223D-02-0.858D-02-0.975D-02 0.207D-01 0.999D+00
 Coeff:      0.871D-03-0.223D-02-0.858D-02-0.975D-02 0.207D-01 0.999D+00
 Gap=     0.331 Goal=   None    Shift=    0.000
 RMSDP=9.24D-06 MaxDP=3.63D-04 DE=-8.65D-06 OVMax= 1.37D-04

 Cycle   7  Pass 1  IDiag  1:
 RMSU=  4.23D-06    CP:  9.55D-01  9.38D-01  9.92D-01  6.93D-01  9.56D-01
                    CP:  1.12D+00
 E= -269.525606260517     Delta-E=       -0.000000156448 Rises=F Damp=F
 DIIS: error= 8.37D-06 at cycle   7 NSaved=   7.
 NSaved= 7 IEnMin= 7 EnMin= -269.525606260517     IErMin= 7 ErrMin= 8.37D-06
 ErrMax= 8.37D-06  0.00D+00 EMaxC= 1.00D-01 BMatC= 2.78D-08 BMatP= 1.22D-07
 IDIUse=1 WtCom= 1.00D+00 WtEn= 0.00D+00
 Coeff-Com:  0.516D-03-0.110D-02-0.582D-02-0.110D-01-0.315D-01 0.346D+00
 Coeff-Com:  0.703D+00
 Coeff:      0.516D-03-0.110D-02-0.582D-02-0.110D-01-0.315D-01 0.346D+00
 Coeff:      0.703D+00
 Gap=     0.331 Goal=   None    Shift=    0.000
 RMSDP=1.58D-06 MaxDP=3.06D-05 DE=-1.56D-07 OVMax= 3.73D-05

 Cycle   8  Pass 1  IDiag  1:
 RMSU=  8.56D-07    CP:  9.55D-01  9.37D-01  9.92D-01  6.93D-01  9.59D-01
                    CP:  1.16D+00  8.99D-01
 E= -269.525606283274     Delta-E=       -0.000000022757 Rises=F Damp=F
 DIIS: error= 3.59D-06 at cycle   8 NSaved=   8.
 NSaved= 8 IEnMin= 8 EnMin= -269.525606283274     IErMin= 8 ErrMin= 3.59D-06
 ErrMax= 3.59D-06  0.00D+00 EMaxC= 1.00D-01 BMatC= 3.82D-09 BMatP= 2.78D-08
 IDIUse=1 WtCom= 1.00D+00 WtEn= 0.00D+00
 Coeff-Com:  0.130D-03-0.252D-03-0.164D-02-0.362D-02-0.149D-01 0.564D-01
 Coeff-Com:  0.298D+00 0.666D+00
 Coeff:      0.130D-03-0.252D-03-0.164D-02-0.362D-02-0.149D-01 0.564D-01
 Coeff:      0.298D+00 0.666D+00
 Gap=     0.331 Goal=   None    Shift=    0.000
 RMSDP=5.91D-07 MaxDP=1.99D-05 DE=-2.28D-08 OVMax= 1.57D-05

 Cycle   9  Pass 1  IDiag  1:
 RMSU=  3.16D-07    CP:  9.55D-01  9.37D-01  9.92D-01  6.94D-01  9.60D-01
                    CP:  1.16D+00  9.81D-01  8.55D-01
 E= -269.525606286171     Delta-E=       -0.000000002897 Rises=F Damp=F
 DIIS: error= 8.07D-07 at cycle   9 NSaved=   9.
 NSaved= 9 IEnMin= 9 EnMin= -269.525606286171     IErMin= 9 ErrMin= 8.07D-07
 ErrMax= 8.07D-07  0.00D+00 EMaxC= 1.00D-01 BMatC= 2.26D-10 BMatP= 3.82D-09
 IDIUse=1 WtCom= 1.00D+00 WtEn= 0.00D+00
 Coeff-Com: -0.144D-05 0.737D-05-0.848D-04-0.305D-03-0.249D-02-0.908D-02
 Coeff-Com:  0.434D-01 0.223D+00 0.745D+00
 Coeff:     -0.144D-05 0.737D-05-0.848D-04-0.305D-03-0.249D-02-0.908D-02
 Coeff:      0.434D-01 0.223D+00 0.745D+00
 Gap=     0.331 Goal=   None    Shift=    0.000
 RMSDP=1.30D-07 MaxDP=3.09D-06 DE=-2.90D-09 OVMax= 3.96D-06

 Cycle  10  Pass 1  IDiag  1:
 RMSU=  9.64D-08    CP:  9.55D-01  9.37D-01  9.93D-01  6.94D-01  9.60D-01
                    CP:  1.16D+00  9.91D-01  9.18D-01  1.01D+00
 E= -269.525606286342     Delta-E=       -0.000000000171 Rises=F Damp=F
 DIIS: error= 2.95D-07 at cycle  10 NSaved=  10.
 NSaved=10 IEnMin=10 EnMin= -269.525606286342     IErMin=10 ErrMin= 2.95D-07
 ErrMax= 2.95D-07  0.00D+00 EMaxC= 1.00D-01 BMatC= 3.33D-11 BMatP= 2.26D-10
 IDIUse=1 WtCom= 1.00D+00 WtEn= 0.00D+00
 Coeff-Com: -0.140D-04 0.289D-04 0.136D-03 0.262D-03 0.622D-03-0.932D-02
 Coeff-Com: -0.191D-01 0.574D-02 0.308D+00 0.713D+00
 Coeff:     -0.140D-04 0.289D-04 0.136D-03 0.262D-03 0.622D-03-0.932D-02
 Coeff:     -0.191D-01 0.574D-02 0.308D+00 0.713D+00
 Gap=     0.331 Goal=   None    Shift=    0.000
 RMSDP=4.81D-08 MaxDP=9.52D-07 DE=-1.71D-10 OVMax= 1.75D-06

 Cycle  11  Pass 1  IDiag  1:
 RMSU=  2.64D-08    CP:  9.55D-01  9.37D-01  9.93D-01  6.94D-01  9.60D-01
                    CP:  1.16D+00  9.98D-01  9.29D-01  1.08D+00  9.26D-01
 E= -269.525606286377     Delta-E=       -0.000000000035 Rises=F Damp=F
 DIIS: error= 4.26D-08 at cycle  11 NSaved=  11.
 NSaved=11 IEnMin=11 EnMin= -269.525606286377     IErMin=11 ErrMin= 4.26D-08
 ErrMax= 4.26D-08  0.00D+00 EMaxC= 1.00D-01 BMatC= 4.22D-13 BMatP= 3.33D-11
 IDIUse=1 WtCom= 1.00D+00 WtEn= 0.00D+00
 Coeff-Com:  0.153D-06-0.669D-08 0.788D-05 0.140D-04 0.111D-03 0.356D-03
 Coeff-Com: -0.264D-02-0.111D-01-0.299D-01 0.152D-01 0.103D+01
 Coeff:      0.153D-06-0.669D-08 0.788D-05 0.140D-04 0.111D-03 0.356D-03
 Coeff:     -0.264D-02-0.111D-01-0.299D-01 0.152D-01 0.103D+01
 Gap=     0.331 Goal=   None    Shift=    0.000
 RMSDP=1.37D-08 MaxDP=4.50D-07 DE=-3.52D-11 OVMax= 6.23D-07

 Cycle  12  Pass 1  IDiag  1:
 RMSU=  6.92D-09    CP:  9.55D-01  9.37D-01  9.93D-01  6.94D-01  9.60D-01
                    CP:  1.16D+00  9.99D-01  9.31D-01  1.09D+00  9.89D-01
                    CP:  1.15D+00
 E= -269.525606286375     Delta-E=        0.000000000003 Rises=F Damp=F
 DIIS: error= 1.11D-08 at cycle  12 NSaved=  12.
 NSaved=12 IEnMin=11 EnMin= -269.525606286377     IErMin=12 ErrMin= 1.11D-08
 ErrMax= 1.11D-08  0.00D+00 EMaxC= 1.00D-01 BMatC= 2.75D-14 BMatP= 4.22D-13
 IDIUse=1 WtCom= 1.00D+00 WtEn= 0.00D+00
 Coeff-Com:  0.800D-06-0.158D-05-0.611D-05-0.130D-04-0.285D-04 0.490D-03
 Coeff-Com:  0.733D-03-0.154D-02-0.188D-01-0.353D-01 0.115D+00 0.940D+00
 Coeff:      0.800D-06-0.158D-05-0.611D-05-0.130D-04-0.285D-04 0.490D-03
 Coeff:      0.733D-03-0.154D-02-0.188D-01-0.353D-01 0.115D+00 0.940D+00
 Gap=     0.331 Goal=   None    Shift=    0.000
 RMSDP=2.87D-09 MaxDP=7.06D-08 DE= 2.50D-12 OVMax= 1.53D-07

 SCF Done:  E(RM062X) =  -269.525606286     A.U. after   12 cycles
            NFock= 12  Conv=0.29D-08     -V/T= 2.0039
 KE= 2.684872197752D+02 PE=-1.008314140796D+03 EE= 2.820060854712D+02
 Leave Link  502 at Mon Nov 10 19:52:52 2025, MaxMem=    33554432 cpu:        25.1
 (Enter /opt/programs/gaussian/g09/d_pgi133/l601.exe)
 Copying SCF densities to generalized density rwf, IOpCl= 0 IROHF=0.

 **********************************************************************

            Population analysis using the SCF density.

 **********************************************************************

 Orbital symmetries:
       Occupied  (A) (A) (A) (A) (A) (A) (A) (A) (A) (A) (A) (A)
                 (A) (A) (A) (A) (A) (A) (A) (A) (A)
       Virtual   (A) (A) (A) (A) (A) (A) (A) (A) (A) (A) (A) (A)
                 (A) (A) (A) (A) (A) (A) (A) (A) (A) (A) (A) (A)
                 (A) (A) (A) (A) (A) (A) (A) (A) (A) (A) (A) (A)
                 (A) (A) (A) (A) (A) (A) (A) (A) (A) (A) (A) (A)
                 (A) (A) (A) (A) (A) (A) (A) (A) (A) (A) (A) (A)
                 (A) (A) (A) (A) (A) (A) (A) (A) (A) (A) (A) (A)
                 (A) (A) (A) (A) (A) (A) (A) (A) (A) (A) (A) (A)
                 (A) (A) (A) (A) (A) (A) (A) (A) (A) (A) (A) (A)
                 (A) (A) (A) (A) (A) (A) (A) (A) (A) (A) (A) (A)
                 (A) (A) (A) (A) (A) (A) (A) (A) (A) (A) (A) (A)
                 (A) (A) (A) (A) (A) (A) (A) (A) (A) (A) (A) (A)
                 (A) (A) (A) (A) (A) (A) (A) (A) (A) (A) (A) (A)
                 (A)
 The electronic state is 1-A.
 Alpha  occ. eigenvalues --  -19.62977 -19.61697 -10.59426 -10.57659 -10.53785
 Alpha  occ. eigenvalues --   -1.15156  -1.13751  -0.87084  -0.76350  -0.68035
 Alpha  occ. eigenvalues --   -0.60581  -0.58063  -0.53687  -0.51248  -0.49573
 Alpha  occ. eigenvalues --   -0.44888  -0.43549  -0.42185  -0.38654  -0.35558
 Alpha  occ. eigenvalues --   -0.34024
 Alpha virt. eigenvalues --   -0.00902   0.00378   0.01529   0.02050   0.03639
 Alpha virt. eigenvalues --    0.04433   0.05439   0.05856   0.07558   0.09397
 Alpha virt. eigenvalues --    0.10188   0.11771   0.12048   0.12341   0.13256
 Alpha virt. eigenvalues --    0.13572   0.14640   0.15154   0.16469   0.16959
 Alpha virt. eigenvalues --    0.18925   0.20089   0.21607   0.22763   0.23284
 Alpha virt. eigenvalues --    0.24376   0.25870   0.26897   0.28195   0.29026
 Alpha virt. eigenvalues --    0.30523   0.31060   0.31805   0.33495   0.34111
 Alpha virt. eigenvalues --    0.34537   0.35811   0.40007   0.40729   0.43403
 Alpha virt. eigenvalues --    0.47204   0.48655   0.51047   0.52133   0.57760
 Alpha virt. eigenvalues --    0.59744   0.61236   0.62797   0.67093   0.68413
 Alpha virt. eigenvalues --    0.69226   0.70698   0.72293   0.72905   0.75143
 Alpha virt. eigenvalues --    0.78601   0.78909   0.92063   0.96327   1.00758
 Alpha virt. eigenvalues --    1.02484   1.07428   1.14589   1.16245   1.20491
 Alpha virt. eigenvalues --    1.21917   1.23975   1.28954   1.32306   1.33313
 Alpha virt. eigenvalues --    1.38235   1.43791   1.44861   1.50039   1.53414
 Alpha virt. eigenvalues --    1.55353   1.58334   1.61162   1.61687   1.63610
 Alpha virt. eigenvalues --    1.64557   1.64878   1.69828   1.70753   1.74727
 Alpha virt. eigenvalues --    1.79201   1.82001   1.85265   1.87002   1.90051
 Alpha virt. eigenvalues --    1.95307   2.02343   2.04208   2.09545   2.10770
 Alpha virt. eigenvalues --    2.15032   2.18303   2.21156   2.30504   2.31812
 Alpha virt. eigenvalues --    2.39448   2.45790   2.50016   2.53644   2.56012
 Alpha virt. eigenvalues --    2.57591   2.60475   2.63144   2.64127   2.67990
 Alpha virt. eigenvalues --    2.71231   2.75503   2.83731   2.88930   2.91349
 Alpha virt. eigenvalues --    2.98304   3.04711   3.12054   3.16934   3.18903
 Alpha virt. eigenvalues --    3.22813   3.26223   3.32064   3.37219   3.44141
 Alpha virt. eigenvalues --    3.70375   3.81723   3.91216   3.93576   3.98936
 Alpha virt. eigenvalues --    4.05021   4.06688   4.18956   4.33254   5.16795
 Alpha virt. eigenvalues --    5.20415   5.49659   5.51032   5.73254   5.75628
 Alpha virt. eigenvalues --   23.89219  23.93268  23.96950  50.01842  50.04158
          Condensed to atoms (all electrons):
               1          2          3          4          5          6
     1  C    5.468563   0.415659   0.379132   0.045547  -0.045546  -0.061444
     2  H    0.415659   0.666981  -0.105939  -0.074394  -0.033458   0.024974
     3  H    0.379132  -0.105939   0.665103   0.021972   0.023478  -0.043193
     4  C    0.045547  -0.074394   0.021972   5.562156   0.380707   0.465541
     5  H   -0.045546  -0.033458   0.023478   0.380707   0.639592  -0.081692
     6  H   -0.061444   0.024974  -0.043193   0.465541  -0.081692   0.561449
     7  C   -0.024231   0.015968  -0.031629   0.023535  -0.003789  -0.052350
     8  H    0.001597   0.005925  -0.005471   0.042323  -0.039919   0.019725
     9  H   -0.024804  -0.007217   0.010720  -0.037148   0.022686  -0.028522
    10  O    0.170785  -0.071603  -0.055589  -0.116583   0.021545  -0.001348
    11  H    0.021762  -0.000253  -0.014511  -0.008154  -0.000440   0.003001
    12  O    0.033016   0.000702  -0.001126  -0.077827  -0.029051   0.011436
    13  H    0.004403   0.001180  -0.000328  -0.005776   0.012871  -0.007146
               7          8          9         10         11         12
     1  C   -0.024231   0.001597  -0.024804   0.170785   0.021762   0.033016
     2  H    0.015968   0.005925  -0.007217  -0.071603  -0.000253   0.000702
     3  H   -0.031629  -0.005471   0.010720  -0.055589  -0.014511  -0.001126
     4  C    0.023535   0.042323  -0.037148  -0.116583  -0.008154  -0.077827
     5  H   -0.003789  -0.039919   0.022686   0.021545  -0.000440  -0.029051
     6  H   -0.052350   0.019725  -0.028522  -0.001348   0.003001   0.011436
     7  C    5.512605   0.299387   0.443587   0.011213   0.001242   0.207918
     8  H    0.299387   0.641673  -0.075278  -0.026177  -0.000461  -0.018338
     9  H    0.443587  -0.075278   0.553080   0.005745  -0.000681  -0.090377
    10  O    0.011213  -0.026177   0.005745   8.133501   0.211239  -0.002436
    11  H    0.001242  -0.000461  -0.000681   0.211239   0.522910  -0.000060
    12  O    0.207918  -0.018338  -0.090377  -0.002436  -0.000060   7.993832
    13  H   -0.026516  -0.024099   0.020023   0.001144  -0.000018   0.245940
              13
     1  C    0.004403
     2  H    0.001180
     3  H   -0.000328
     4  C   -0.005776
     5  H    0.012871
     6  H   -0.007146
     7  C   -0.026516
     8  H   -0.024099
     9  H    0.020023
    10  O    0.001144
    11  H   -0.000018
    12  O    0.245940
    13  H    0.533136
 Mulliken charges:
               1
     1  C   -0.384440
     2  H    0.161475
     3  H    0.157379
     4  C   -0.221900
     5  H    0.133015
     6  H    0.189569
     7  C   -0.376943
     8  H    0.179113
     9  H    0.208186
    10  O   -0.281436
    11  H    0.264425
    12  O   -0.273628
    13  H    0.245185
 Sum of Mulliken charges =   0.00000
 Mulliken charges with hydrogens summed into heavy atoms:
               1
     1  C   -0.065585
     4  C    0.100684
     7  C    0.010356
    10  O   -0.017011
    12  O   -0.028443
 Electronic spatial extent (au):  <R**2>=            548.7549
 Charge=              0.0000 electrons
 Dipole moment (field-independent basis, Debye):
    X=             -2.4348    Y=              1.9203    Z=              1.4929  Tot=              3.4416
 Quadrupole moment (field-independent basis, Debye-Ang):
   XX=            -29.3612   YY=            -32.3846   ZZ=            -31.6084
   XY=              2.3987   XZ=              3.1657   YZ=              0.4959
 Traceless Quadrupole moment (field-independent basis, Debye-Ang):
   XX=              1.7569   YY=             -1.2666   ZZ=             -0.4903
   XY=              2.3987   XZ=              3.1657   YZ=              0.4959
 Octapole moment (field-independent basis, Debye-Ang**2):
  XXX=            -31.5903  YYY=             -3.0191  ZZZ=              0.6121  XYY=              0.4297
  XXY=              3.4295  XXZ=             10.3714  XZZ=              1.7559  YZZ=             -0.0225
  YYZ=              0.0441  XYZ=              2.3827
 Hexadecapole moment (field-independent basis, Debye-Ang**3):
 XXXX=           -428.0745 YYYY=           -136.4696 ZZZZ=            -55.3978 XXXY=             51.6713
 XXXZ=             25.1440 YYYX=              7.1655 YYYZ=              2.1111 ZZZX=              1.9301
 ZZZY=              0.0326 XXYY=            -98.4606 XXZZ=            -89.4998 YYZZ=            -30.5758
 XXYZ=              3.0158 YYXZ=              1.2949 ZZXY=              0.7039
 N-N= 1.882952292635D+02 E-N=-1.008314141400D+03  KE= 2.684872197752D+02
 No NMR shielding tensors so no spin-rotation constants.
 Leave Link  601 at Mon Nov 10 19:52:52 2025, MaxMem=    33554432 cpu:         0.0
 (Enter /opt/programs/gaussian/g09/d_pgi133/l9999.exe)
 1\1\GINC-EXADE5\SP\RM062X\6-311++G(d,p)\C3H8O2\APINTO\10-Nov-2025\0\\#
 p M062X/6-311++G(d,p)\\SP\\0,1\C,0,1.456324,-0.216678,-0.071292\H,0,1.
 678013,-1.163204,0.447641\H,0,2.126314,-0.164461,-0.942249\C,0,-0.0118
 68,-0.216375,-0.539412\H,0,-0.356425,-1.254736,-0.631598\H,0,-0.092349
 ,0.225799,-1.538816\C,0,-0.969166,0.566388,0.368244\H,0,-0.938731,0.17
 5819,1.396707\H,0,-0.663193,1.61205,0.41597\O,0,1.668768,0.88035,0.815
 035\H,0,2.600103,0.882026,1.06761\O,0,-2.297211,0.563673,-0.148049\H,0
 ,-2.612954,-0.349357,-0.137055\\Version=ES64L-G09RevD.01\State=1-A\HF=
 -269.5256063\RMSD=2.870e-09\Dipole=0.9364641,-0.9778405,0.0159787\Quad
 rupole=1.543432,-0.4562097,-1.0872223,2.8816463,-0.1572279,0.0630132\P
 G=C01 [X(C3H8O2)]\\@


 HERE WE GO......
 SLIDING DOWN THE RAZOR BLADE OF LIFE......
                                 TOM LEHRER
 Job cpu time:       0 days  0 hours  0 minutes 26.8 seconds.
 File lengths (MBytes):  RWF=     16 Int=      0 D2E=      0 Chk=      2 Scr=      1
 Normal termination of Gaussian 09 at Mon Nov 10 19:52:52 2025.
