 Entering Gaussian System, Link 0=g09
 Input=xbv.com
 Output=xbv.log
 Initial command:
 /opt/programs/gaussian/g09/d_pgi133/l1.exe "/scratch/users/apinto/lixo/Gau-1271939.inp" -scrdir="/scratch/users/apinto/lixo/"
 Entering Link 1 = /opt/programs/gaussian/g09/d_pgi133/l1.exe PID=   1271941.
  
 Copyright (c) 1988,1990,1992,1993,1995,1998,2003,2009,2013,
            Gaussian, Inc.  All Rights Reserved.
  
 This is part of the Gaussian(R) 09 program.  It is based on
 the Gaussian(R) 03 system (copyright 2003, Gaussian, Inc.),
 the Gaussian(R) 98 system (copyright 1998, Gaussian, Inc.),
 the Gaussian(R) 94 system (copyright 1995, Gaussian, Inc.),
 the Gaussian 92(TM) system (copyright 1992, Gaussian, Inc.),
 the Gaussian 90(TM) system (copyright 1990, Gaussian, Inc.),
 the Gaussian 88(TM) system (copyright 1988, Gaussian, Inc.),
 the Gaussian 86(TM) system (copyright 1986, Carnegie Mellon
 University), and the Gaussian 82(TM) system (copyright 1983,
 Carnegie Mellon University). Gaussian is a federally registered
 trademark of Gaussian, Inc.
  
 This software contains proprietary and confidential information,
 including trade secrets, belonging to Gaussian, Inc.
  
 This software is provided under written license and may be
 used, copied, transmitted, or stored only in accord with that
 written license.
  
 The following legend is applicable only to US Government
 contracts under FAR:
  
                    RESTRICTED RIGHTS LEGEND
  
 Use, reproduction and disclosure by the US Government is
 subject to restrictions as set forth in subparagraphs (a)
 and (c) of the Commercial Computer Software - Restricted
 Rights clause in FAR 52.227-19.
  
 Gaussian, Inc.
 340 Quinnipiac St., Bldg. 40, Wallingford CT 06492
  
  
 ---------------------------------------------------------------
 Warning -- This program may not be used in any manner that
 competes with the business of Gaussian, Inc. or will provide
 assistance to any competitor of Gaussian, Inc.  The licensee
 of this program is prohibited from giving any competitor of
 Gaussian, Inc. access to this program.  By using this program,
 the user acknowledges that Gaussian, Inc. is engaged in the
 business of creating and licensing software in the field of
 computational chemistry and represents and warrants to the
 licensee that it is not a competitor of Gaussian, Inc. and that
 it will not use this program in any manner prohibited above.
 ---------------------------------------------------------------
  

 Cite this work as:
 Gaussian 09, Revision D.01,
 M. J. Frisch, G. W. Trucks, H. B. Schlegel, G. E. Scuseria, 
 M. A. Robb, J. R. Cheeseman, G. Scalmani, V. Barone, B. Mennucci, 
 G. A. Petersson, H. Nakatsuji, M. Caricato, X. Li, H. P. Hratchian, 
 A. F. Izmaylov, J. Bloino, G. Zheng, J. L. Sonnenberg, M. Hada, 
 M. Ehara, K. Toyota, R. Fukuda, J. Hasegawa, M. Ishida, T. Nakajima, 
 Y. Honda, O. Kitao, H. Nakai, T. Vreven, J. A. Montgomery, Jr., 
 J. E. Peralta, F. Ogliaro, M. Bearpark, J. J. Heyd, E. Brothers, 
 K. N. Kudin, V. N. Staroverov, T. Keith, R. Kobayashi, J. Normand, 
 K. Raghavachari, A. Rendell, J. C. Burant, S. S. Iyengar, J. Tomasi, 
 M. Cossi, N. Rega, J. M. Millam, M. Klene, J. E. Knox, J. B. Cross, 
 V. Bakken, C. Adamo, J. Jaramillo, R. Gomperts, R. E. Stratmann, 
 O. Yazyev, A. J. Austin, R. Cammi, C. Pomelli, J. W. Ochterski, 
 R. L. Martin, K. Morokuma, V. G. Zakrzewski, G. A. Voth, 
 P. Salvador, J. J. Dannenberg, S. Dapprich, A. D. Daniels, 
 O. Farkas, J. B. Foresman, J. V. Ortiz, J. Cioslowski, 
 and D. J. Fox, Gaussian, Inc., Wallingford CT, 2013.
 
 ******************************************
 Gaussian 09:  ES64L-G09RevD.01 24-Apr-2013
                10-Nov-2025 
 ******************************************
 ----------------------
 #p M062X/6-311++G(d,p)
 ----------------------
 1/38=1/1;
 2/12=2,17=6,18=5,40=1/2;
 3/5=4,6=6,7=1111,11=2,16=1,25=1,30=1,74=-55/1,2,3;
 4//1;
 5/5=2,38=5/2;
 6/7=2,8=2,9=2,10=2,28=1/1;
 99/5=1,9=1/99;
 Leave Link    1 at Mon Nov 10 19:52:52 2025, MaxMem=           0 cpu:         0.0
 (Enter /opt/programs/gaussian/g09/d_pgi133/l101.exe)
 --
 SP
 --
 Symbolic Z-matrix:
 Charge =  0 Multiplicity = 1
 C                     1.46138  -0.21114  -0.0811 
 H                     1.72163  -1.18229   0.36895 
 H                     2.1198   -0.07652  -0.95212 
 C                    -0.01398  -0.22762  -0.53518 
 H                    -0.36282  -1.26748  -0.58353 
 H                    -0.10569   0.17404  -1.55038 
 C                    -0.96649   0.58513   0.35187 
 H                    -0.92809   0.2307    1.39221 
 H                    -0.66473   1.63335   0.36199 
 O                     1.65158   0.83206   0.87332 
 H                     2.58489   0.84343   1.11813 
 O                    -2.29755   0.55982  -0.15635 
 H                    -2.61229  -0.35219  -0.10507 
 
 NAtoms=     13 NQM=       13 NQMF=       0 NMMI=      0 NMMIF=      0
                NMic=       0 NMicF=      0.
                    Isotopes and Nuclear Properties:
 (Nuclear quadrupole moments (NQMom) in fm**2, nuclear magnetic moments (NMagM)
  in nuclear magnetons)

  Atom         1           2           3           4           5           6           7           8           9          10
 IAtWgt=          12           1           1          12           1           1          12           1           1          16
 AtmWgt=  12.0000000   1.0078250   1.0078250  12.0000000   1.0078250   1.0078250  12.0000000   1.0078250   1.0078250  15.9949146
 NucSpn=           0           1           1           0           1           1           0           1           1           0
 AtZEff=   0.0000000   0.0000000   0.0000000   0.0000000   0.0000000   0.0000000   0.0000000   0.0000000   0.0000000   0.0000000
 NQMom=    0.0000000   0.0000000   0.0000000   0.0000000   0.0000000   0.0000000   0.0000000   0.0000000   0.0000000   0.0000000
 NMagM=    0.0000000   2.7928460   2.7928460   0.0000000   2.7928460   2.7928460   0.0000000   2.7928460   2.7928460   0.0000000
 AtZNuc=   6.0000000   1.0000000   1.0000000   6.0000000   1.0000000   1.0000000   6.0000000   1.0000000   1.0000000   8.0000000

  Atom        11          12          13
 IAtWgt=           1          16           1
 AtmWgt=   1.0078250  15.9949146   1.0078250
 NucSpn=           1           0           1
 AtZEff=   0.0000000   0.0000000   0.0000000
 NQMom=    0.0000000   0.0000000   0.0000000
 NMagM=    2.7928460   0.0000000   2.7928460
 AtZNuc=   1.0000000   8.0000000   1.0000000
 Leave Link  101 at Mon Nov 10 19:52:52 2025, MaxMem=    33554432 cpu:         0.0
 (Enter /opt/programs/gaussian/g09/d_pgi133/l202.exe)
                          Input orientation:                          
 ---------------------------------------------------------------------
 Center     Atomic      Atomic             Coordinates (Angstroms)
 Number     Number       Type             X           Y           Z
 ---------------------------------------------------------------------
      1          6           0        1.461379   -0.211143   -0.081098
      2          1           0        1.721634   -1.182289    0.368952
      3          1           0        2.119796   -0.076520   -0.952122
      4          6           0       -0.013978   -0.227618   -0.535177
      5          1           0       -0.362819   -1.267484   -0.583532
      6          1           0       -0.105694    0.174040   -1.550381
      7          6           0       -0.966492    0.585127    0.351868
      8          1           0       -0.928094    0.230702    1.392210
      9          1           0       -0.664727    1.633352    0.361985
     10          8           0        1.651576    0.832061    0.873318
     11          1           0        2.584888    0.843432    1.118129
     12          8           0       -2.297551    0.559823   -0.156345
     13          1           0       -2.612292   -0.352190   -0.105072
 ---------------------------------------------------------------------
                    Distance matrix (angstroms):
                    1          2          3          4          5
     1  C    0.000000
     2  H    1.101545   0.000000
     3  H    1.100145   1.768190   0.000000
     4  C    1.543741   2.177429   2.179373   0.000000
     5  H    2.167024   2.293344   2.778062   1.097884   0.000000
     6  H    2.182401   2.977011   2.318081   1.095619   1.754680
     7  C    2.591537   3.217153   3.415163   1.534499   2.161380
     8  H    2.841733   3.172485   3.857449   2.181854   2.543158
     9  H    2.849353   3.690881   3.521947   2.166006   3.065942
    10  O    1.426660   2.077715   2.092123   2.425046   3.253965
    11  H    1.952574   2.325945   2.312696   3.261085   4.005071
    12  O    3.837917   4.411886   4.533337   2.445053   2.695316
    13  H    4.076183   4.438094   4.815199   2.636616   2.475241
                    6          7          8          9         10
     6  H    0.000000
     7  C    2.128031   0.000000
     8  H    3.055879   1.099729   0.000000
     9  H    2.469667   1.090844   1.760157   0.000000
    10  O    3.065176   2.680889   2.699181   2.503755   0.000000
    11  H    3.848151   3.642276   3.576535   3.428662   0.964952
    12  O    2.626100   1.425005   2.093264   2.021694   4.090223
    13  H    2.940896   1.948336   2.327690   2.820200   4.532137
                   11         12         13
    11  H    0.000000
    12  O    5.054001   0.000000
    13  H    5.471418   0.966157   0.000000
 Stoichiometry    C3H8O2
 Framework group  C1[X(C3H8O2)]
 Deg. of freedom    33
 Full point group                 C1      NOp   1
 Largest Abelian subgroup         C1      NOp   1
 Largest concise Abelian subgroup C1      NOp   1
                         Standard orientation:                         
 ---------------------------------------------------------------------
 Center     Atomic      Atomic             Coordinates (Angstroms)
 Number     Number       Type             X           Y           Z
 ---------------------------------------------------------------------
      1          6           0       -1.453806    0.579906    0.053380
      2          1           0       -1.804680    0.964612    1.024097
      3          1           0       -1.986863    1.145338   -0.725372
      4          6           0        0.066973    0.810430   -0.077872
      5          1           0        0.382679    1.553474    0.666146
      6          1           0        0.305344    1.237741   -1.058160
      7          6           0        0.922313   -0.454329    0.075314
      8          1           0        0.735106   -0.936354    1.045885
      9          1           0        0.658565   -1.179514   -0.695714
     10          8           0       -1.731378   -0.816108   -0.043875
     11          1           0       -2.687810   -0.932643    0.008950
     12          8           0        2.306947   -0.169420   -0.104281
     13          1           0        2.580225    0.415521    0.614484
 ---------------------------------------------------------------------
 Rotational constants (GHZ):     12.4785490      2.5700922      2.2346948
 Leave Link  202 at Mon Nov 10 19:52:52 2025, MaxMem=    33554432 cpu:         0.0
 (Enter /opt/programs/gaussian/g09/d_pgi133/l301.exe)
 Standard basis: 6-311++G(d,p) (5D, 7F)
 Ernie: Thresh=  0.10000D-02 Tol=  0.10000D-05 Strict=F.
 There are   171 symmetry adapted cartesian basis functions of A   symmetry.
 There are   166 symmetry adapted basis functions of A   symmetry.
   166 basis functions,   252 primitive gaussians,   171 cartesian basis functions
    21 alpha electrons       21 beta electrons
       nuclear repulsion energy       188.2695116455 Hartrees.
 IExCor= 4336 DFT=T Ex+Corr=M062X ExCW=0 ScaHFX=  0.540000
 ScaDFX=  1.000000  1.000000  1.000000  1.000000 ScalE2=  1.000000  1.000000
 IRadAn=      0 IRanWt=     -1 IRanGd=            0 ICorTp=0 IEmpDi=  4
 NAtoms=   13 NActive=   13 NUniq=   13 SFac= 1.00D+00 NAtFMM=   60 NAOKFM=F Big=F
 Integral buffers will be    131072 words long.
 Raffenetti 2 integral format.
 Two-electron integral symmetry is turned on.
 Leave Link  301 at Mon Nov 10 19:52:52 2025, MaxMem=    33554432 cpu:         0.0
 (Enter /opt/programs/gaussian/g09/d_pgi133/l302.exe)
 NPDir=0 NMtPBC=     1 NCelOv=     1 NCel=       1 NClECP=     1 NCelD=      1
         NCelK=      1 NCelE2=     1 NClLst=     1 CellRange=     0.0.
 One-electron integrals computed using PRISM.
 NBasis=   166 RedAO= T EigKep=  4.12D-05  NBF=   166
 NBsUse=   166 1.00D-06 EigRej= -1.00D+00 NBFU=   166
 Precomputing XC quadrature grid using
 IXCGrd= 4 IRadAn=           0 IRanWt=          -1 IRanGd=           0 AccXCQ= 0.00D+00.
 Generated NRdTot=       0 NPtTot=           0 NUsed=           0 NTot=          32
 NSgBfM=   171   171   171   171   171 MxSgAt=    13 MxSgA2=    13.
 Leave Link  302 at Mon Nov 10 19:52:52 2025, MaxMem=    33554432 cpu:         0.1
 (Enter /opt/programs/gaussian/g09/d_pgi133/l303.exe)
 DipDrv:  MaxL=1.
 Leave Link  303 at Mon Nov 10 19:52:52 2025, MaxMem=    33554432 cpu:         0.0
 (Enter /opt/programs/gaussian/g09/d_pgi133/l401.exe)
 ExpMin= 3.60D-02 ExpMax= 8.59D+03 ExpMxC= 1.30D+03 IAcc=3 IRadAn=         5 AccDes= 0.00D+00
 Harris functional with IExCor= 1009 and IRadAn=       5 diagonalized for initial guess.
 HarFok:  IExCor= 1009 AccDes= 0.00D+00 IRadAn=         5 IDoV= 1 UseB2=F ITyADJ=14
 ICtDFT=  3500011 ScaDFX=  1.000000  1.000000  1.000000  1.000000
 FoFCou: FMM=F IPFlag=           0 FMFlag=      100000 FMFlg1=           0
         NFxFlg=           0 DoJE=T BraDBF=F KetDBF=T FulRan=T
         wScrn=  0.000000 ICntrl=     500 IOpCl=  0 I1Cent=   200000004 NGrid=           0
         NMat0=    1 NMatS0=      1 NMatT0=    0 NMatD0=    1 NMtDS0=    0 NMtDT0=    0
 Petite list used in FoFCou.
 Harris En= -269.437916058100    
 JPrj=0 DoOrth=F DoCkMO=F.
 Leave Link  401 at Mon Nov 10 19:52:54 2025, MaxMem=    33554432 cpu:         1.5
 (Enter /opt/programs/gaussian/g09/d_pgi133/l502.exe)
 Closed shell SCF:
 Using DIIS extrapolation, IDIIS=  1040.
 Integral symmetry usage will be decided dynamically.
 IVT=      108587 IEndB=      108587 NGot=    33554432 MDV=    33491898
 LenX=    33491898 LenY=    33462216
 Requested convergence on RMS density matrix=1.00D-08 within 128 cycles.
 Requested convergence on MAX density matrix=1.00D-06.
 Requested convergence on             energy=1.00D-06.
 No special actions if energy rises.
 Fock matrices will be formed incrementally for  20 cycles.

 Cycle   1  Pass 1  IDiag  1:
 FoFJK:  IHMeth= 1 ICntrl=       0 DoSepK=F KAlg= 0 I1Cent=   0 FoldK=F
 IRaf= 980000000 NMat=   1 IRICut=       1 DoRegI=T DoRafI=F ISym2E= 0.
 FoFCou: FMM=F IPFlag=           0 FMFlag=      100000 FMFlg1=           0
         NFxFlg=           0 DoJE=F BraDBF=F KetDBF=F FulRan=T
         wScrn=  0.000000 ICntrl=       0 IOpCl=  0 I1Cent=           0 NGrid=           0
         NMat0=    1 NMatS0=      1 NMatT0=    0 NMatD0=    1 NMtDS0=    0 NMtDT0=    0
 Symmetry not used in FoFCou.
 E= -269.357249907979    
 DIIS: error= 2.92D-02 at cycle   1 NSaved=   1.
 NSaved= 1 IEnMin= 1 EnMin= -269.357249907979     IErMin= 1 ErrMin= 2.92D-02
 ErrMax= 2.92D-02  0.00D+00 EMaxC= 1.00D-01 BMatC= 2.34D-01 BMatP= 2.34D-01
 IDIUse=3 WtCom= 7.08D-01 WtEn= 2.92D-01
 Coeff-Com:  0.100D+01
 Coeff-En:   0.100D+01
 Coeff:      0.100D+01
 Gap=     0.294 Goal=   None    Shift=    0.000
 GapD=    0.294 DampG=1.000 DampE=0.500 DampFc=0.5000 IDamp=-1.
 Damping current iteration by 5.00D-01
 RMSDP=6.25D-03 MaxDP=1.41D-01              OVMax= 1.35D-01

 Cycle   2  Pass 1  IDiag  1:
 RMSU=  3.11D-03    CP:  9.80D-01
 E= -269.437570196952     Delta-E=       -0.080320288972 Rises=F Damp=T
 DIIS: error= 7.49D-03 at cycle   2 NSaved=   2.
 NSaved= 2 IEnMin= 2 EnMin= -269.437570196952     IErMin= 2 ErrMin= 7.49D-03
 ErrMax= 7.49D-03  0.00D+00 EMaxC= 1.00D-01 BMatC= 1.54D-02 BMatP= 2.34D-01
 IDIUse=3 WtCom= 9.25D-01 WtEn= 7.49D-02
 Coeff-Com: -0.355D-01 0.104D+01
 Coeff-En:   0.000D+00 0.100D+01
 Coeff:     -0.328D-01 0.103D+01
 Gap=     0.341 Goal=   None    Shift=    0.000
 RMSDP=1.94D-03 MaxDP=7.93D-02 DE=-8.03D-02 OVMax= 7.13D-02

 Cycle   3  Pass 1  IDiag  1:
 RMSU=  1.88D-03    CP:  9.54D-01  9.09D-01
 E= -269.521958721796     Delta-E=       -0.084388524844 Rises=F Damp=F
 DIIS: error= 4.96D-03 at cycle   3 NSaved=   3.
 NSaved= 3 IEnMin= 3 EnMin= -269.521958721796     IErMin= 3 ErrMin= 4.96D-03
 ErrMax= 4.96D-03  0.00D+00 EMaxC= 1.00D-01 BMatC= 4.04D-03 BMatP= 1.54D-02
 IDIUse=3 WtCom= 9.50D-01 WtEn= 4.96D-02
 Coeff-Com: -0.781D-01 0.316D+00 0.762D+00
 Coeff-En:   0.000D+00 0.000D+00 0.100D+01
 Coeff:     -0.742D-01 0.300D+00 0.774D+00
 Gap=     0.333 Goal=   None    Shift=    0.000
 RMSDP=3.79D-04 MaxDP=8.79D-03 DE=-8.44D-02 OVMax= 1.28D-02

 Cycle   4  Pass 1  IDiag  1:
 RMSU=  3.24D-04    CP:  9.55D-01  9.71D-01  9.77D-01
 E= -269.524132150690     Delta-E=       -0.002173428894 Rises=F Damp=F
 DIIS: error= 1.71D-03 at cycle   4 NSaved=   4.
 NSaved= 4 IEnMin= 4 EnMin= -269.524132150690     IErMin= 4 ErrMin= 1.71D-03
 ErrMax= 1.71D-03  0.00D+00 EMaxC= 1.00D-01 BMatC= 7.31D-04 BMatP= 4.04D-03
 IDIUse=3 WtCom= 9.83D-01 WtEn= 1.71D-02
 Coeff-Com: -0.319D-01 0.860D-01 0.372D+00 0.574D+00
 Coeff-En:   0.000D+00 0.000D+00 0.963D-01 0.904D+00
 Coeff:     -0.313D-01 0.845D-01 0.367D+00 0.580D+00
 Gap=     0.331 Goal=   None    Shift=    0.000
 RMSDP=1.63D-04 MaxDP=3.72D-03 DE=-2.17D-03 OVMax= 4.66D-03

 Cycle   5  Pass 1  IDiag  1:
 RMSU=  9.89D-05    CP:  9.53D-01  9.53D-01  9.87D-01  6.56D-01
 E= -269.524718918677     Delta-E=       -0.000586767987 Rises=F Damp=F
 DIIS: error= 2.04D-04 at cycle   5 NSaved=   5.
 NSaved= 5 IEnMin= 5 EnMin= -269.524718918677     IErMin= 5 ErrMin= 2.04D-04
 ErrMax= 2.04D-04  0.00D+00 EMaxC= 1.00D-01 BMatC= 1.04D-05 BMatP= 7.31D-04
 IDIUse=3 WtCom= 9.98D-01 WtEn= 2.04D-03
 Coeff-Com: -0.399D-02 0.582D-02 0.540D-01 0.155D+00 0.789D+00
 Coeff-En:   0.000D+00 0.000D+00 0.000D+00 0.000D+00 0.100D+01
 Coeff:     -0.398D-02 0.581D-02 0.539D-01 0.154D+00 0.790D+00
 Gap=     0.331 Goal=   None    Shift=    0.000
 RMSDP=2.97D-05 MaxDP=8.66D-04 DE=-5.87D-04 OVMax= 5.89D-04

 Cycle   6  Pass 1  IDiag  1:
 RMSU=  2.17D-05    CP:  9.53D-01  9.50D-01  9.93D-01  6.96D-01  9.28D-01
 E= -269.524727549329     Delta-E=       -0.000008630652 Rises=F Damp=F
 DIIS: error= 2.45D-05 at cycle   6 NSaved=   6.
 NSaved= 6 IEnMin= 6 EnMin= -269.524727549329     IErMin= 6 ErrMin= 2.45D-05
 ErrMax= 2.45D-05  0.00D+00 EMaxC= 1.00D-01 BMatC= 1.20D-07 BMatP= 1.04D-05
 IDIUse=1 WtCom= 1.00D+00 WtEn= 0.00D+00
 Coeff-Com:  0.859D-03-0.220D-02-0.844D-02-0.953D-02 0.213D-01 0.998D+00
 Coeff:      0.859D-03-0.220D-02-0.844D-02-0.953D-02 0.213D-01 0.998D+00
 Gap=     0.331 Goal=   None    Shift=    0.000
 RMSDP=9.19D-06 MaxDP=3.42D-04 DE=-8.63D-06 OVMax= 1.36D-04

 Cycle   7  Pass 1  IDiag  1:
 RMSU=  4.19D-06    CP:  9.53D-01  9.48D-01  9.93D-01  7.00D-01  9.60D-01
                    CP:  1.13D+00
 E= -269.524727704634     Delta-E=       -0.000000155305 Rises=F Damp=F
 DIIS: error= 8.45D-06 at cycle   7 NSaved=   7.
 NSaved= 7 IEnMin= 7 EnMin= -269.524727704634     IErMin= 7 ErrMin= 8.45D-06
 ErrMax= 8.45D-06  0.00D+00 EMaxC= 1.00D-01 BMatC= 2.70D-08 BMatP= 1.20D-07
 IDIUse=1 WtCom= 1.00D+00 WtEn= 0.00D+00
 Coeff-Com:  0.510D-03-0.109D-02-0.578D-02-0.110D-01-0.315D-01 0.342D+00
 Coeff-Com:  0.707D+00
 Coeff:      0.510D-03-0.109D-02-0.578D-02-0.110D-01-0.315D-01 0.342D+00
 Coeff:      0.707D+00
 Gap=     0.331 Goal=   None    Shift=    0.000
 RMSDP=1.54D-06 MaxDP=3.09D-05 DE=-1.55D-07 OVMax= 3.68D-05

 Cycle   8  Pass 1  IDiag  1:
 RMSU=  8.52D-07    CP:  9.53D-01  9.47D-01  9.94D-01  7.01D-01  9.63D-01
                    CP:  1.16D+00  8.98D-01
 E= -269.524727727037     Delta-E=       -0.000000022402 Rises=F Damp=F
 DIIS: error= 3.59D-06 at cycle   8 NSaved=   8.
 NSaved= 8 IEnMin= 8 EnMin= -269.524727727037     IErMin= 8 ErrMin= 3.59D-06
 ErrMax= 3.59D-06  0.00D+00 EMaxC= 1.00D-01 BMatC= 3.70D-09 BMatP= 2.70D-08
 IDIUse=1 WtCom= 1.00D+00 WtEn= 0.00D+00
 Coeff-Com:  0.127D-03-0.246D-03-0.162D-02-0.358D-02-0.148D-01 0.545D-01
 Coeff-Com:  0.298D+00 0.668D+00
 Coeff:      0.127D-03-0.246D-03-0.162D-02-0.358D-02-0.148D-01 0.545D-01
 Coeff:      0.298D+00 0.668D+00
 Gap=     0.331 Goal=   None    Shift=    0.000
 RMSDP=5.74D-07 MaxDP=1.89D-05 DE=-2.24D-08 OVMax= 1.55D-05

 Cycle   9  Pass 1  IDiag  1:
 RMSU=  3.10D-07    CP:  9.53D-01  9.47D-01  9.94D-01  7.01D-01  9.64D-01
                    CP:  1.17D+00  9.77D-01  8.57D-01
 E= -269.524727729865     Delta-E=       -0.000000002828 Rises=F Damp=F
 DIIS: error= 9.66D-07 at cycle   9 NSaved=   9.
 NSaved= 9 IEnMin= 9 EnMin= -269.524727729865     IErMin= 9 ErrMin= 9.66D-07
 ErrMax= 9.66D-07  0.00D+00 EMaxC= 1.00D-01 BMatC= 2.26D-10 BMatP= 3.70D-09
 IDIUse=1 WtCom= 1.00D+00 WtEn= 0.00D+00
 Coeff-Com: -0.145D-05 0.737D-05-0.866D-04-0.308D-03-0.250D-02-0.921D-02
 Coeff-Com:  0.441D-01 0.226D+00 0.742D+00
 Coeff:     -0.145D-05 0.737D-05-0.866D-04-0.308D-03-0.250D-02-0.921D-02
 Coeff:      0.441D-01 0.226D+00 0.742D+00
 Gap=     0.331 Goal=   None    Shift=    0.000
 RMSDP=1.27D-07 MaxDP=3.08D-06 DE=-2.83D-09 OVMax= 3.88D-06

 Cycle  10  Pass 1  IDiag  1:
 RMSU=  9.48D-08    CP:  9.53D-01  9.47D-01  9.94D-01  7.01D-01  9.64D-01
                    CP:  1.17D+00  9.87D-01  9.20D-01  1.01D+00
 E= -269.524727730040     Delta-E=       -0.000000000175 Rises=F Damp=F
 DIIS: error= 2.92D-07 at cycle  10 NSaved=  10.
 NSaved=10 IEnMin=10 EnMin= -269.524727730040     IErMin=10 ErrMin= 2.92D-07
 ErrMax= 2.92D-07  0.00D+00 EMaxC= 1.00D-01 BMatC= 3.36D-11 BMatP= 2.26D-10
 IDIUse=1 WtCom= 1.00D+00 WtEn= 0.00D+00
 Coeff-Com: -0.141D-04 0.290D-04 0.137D-03 0.265D-03 0.635D-03-0.934D-02
 Coeff-Com: -0.193D-01 0.609D-02 0.310D+00 0.712D+00
 Coeff:     -0.141D-04 0.290D-04 0.137D-03 0.265D-03 0.635D-03-0.934D-02
 Coeff:     -0.193D-01 0.609D-02 0.310D+00 0.712D+00
 Gap=     0.331 Goal=   None    Shift=    0.000
 RMSDP=4.71D-08 MaxDP=8.99D-07 DE=-1.75D-10 OVMax= 1.74D-06

 Cycle  11  Pass 1  IDiag  1:
 RMSU=  2.58D-08    CP:  9.53D-01  9.47D-01  9.94D-01  7.01D-01  9.64D-01
                    CP:  1.17D+00  9.93D-01  9.31D-01  1.08D+00  9.18D-01
 E= -269.524727730067     Delta-E=       -0.000000000027 Rises=F Damp=F
 DIIS: error= 4.50D-08 at cycle  11 NSaved=  11.
 NSaved=11 IEnMin=11 EnMin= -269.524727730067     IErMin=11 ErrMin= 4.50D-08
 ErrMax= 4.50D-08  0.00D+00 EMaxC= 1.00D-01 BMatC= 4.02D-13 BMatP= 3.36D-11
 IDIUse=1 WtCom= 1.00D+00 WtEn= 0.00D+00
 Coeff-Com:  0.272D-06-0.245D-06 0.660D-05 0.112D-04 0.101D-03 0.408D-03
 Coeff-Com: -0.248D-02-0.109D-01-0.311D-01 0.111D-01 0.103D+01
 Coeff:      0.272D-06-0.245D-06 0.660D-05 0.112D-04 0.101D-03 0.408D-03
 Coeff:     -0.248D-02-0.109D-01-0.311D-01 0.111D-01 0.103D+01
 Gap=     0.331 Goal=   None    Shift=    0.000
 RMSDP=1.29D-08 MaxDP=3.87D-07 DE=-2.74D-11 OVMax= 6.10D-07

 Cycle  12  Pass 1  IDiag  1:
 RMSU=  6.65D-09    CP:  9.53D-01  9.47D-01  9.94D-01  7.01D-01  9.64D-01
                    CP:  1.17D+00  9.95D-01  9.33D-01  1.10D+00  9.78D-01
                    CP:  1.16D+00
 E= -269.524727730068     Delta-E=       -0.000000000001 Rises=F Damp=F
 DIIS: error= 1.01D-08 at cycle  12 NSaved=  12.
 NSaved=12 IEnMin=12 EnMin= -269.524727730068     IErMin=12 ErrMin= 1.01D-08
 ErrMax= 1.01D-08  0.00D+00 EMaxC= 1.00D-01 BMatC= 2.52D-14 BMatP= 4.02D-13
 IDIUse=1 WtCom= 1.00D+00 WtEn= 0.00D+00
 Coeff-Com:  0.775D-06-0.153D-05-0.596D-05-0.127D-04-0.280D-04 0.478D-03
 Coeff-Com:  0.740D-03-0.147D-02-0.183D-01-0.350D-01 0.103D+00 0.951D+00
 Coeff:      0.775D-06-0.153D-05-0.596D-05-0.127D-04-0.280D-04 0.478D-03
 Coeff:      0.740D-03-0.147D-02-0.183D-01-0.350D-01 0.103D+00 0.951D+00
 Gap=     0.331 Goal=   None    Shift=    0.000
 RMSDP=2.76D-09 MaxDP=6.90D-08 DE=-6.25D-13 OVMax= 1.49D-07

 SCF Done:  E(RM062X) =  -269.524727730     A.U. after   12 cycles
            NFock= 12  Conv=0.28D-08     -V/T= 2.0039
 KE= 2.684864621347D+02 PE=-1.008269066144D+03 EE= 2.819883646338D+02
 Leave Link  502 at Mon Nov 10 19:53:19 2025, MaxMem=    33554432 cpu:        24.9
 (Enter /opt/programs/gaussian/g09/d_pgi133/l601.exe)
 Copying SCF densities to generalized density rwf, IOpCl= 0 IROHF=0.

 **********************************************************************

            Population analysis using the SCF density.

 **********************************************************************

 Orbital symmetries:
       Occupied  (A) (A) (A) (A) (A) (A) (A) (A) (A) (A) (A) (A)
                 (A) (A) (A) (A) (A) (A) (A) (A) (A)
       Virtual   (A) (A) (A) (A) (A) (A) (A) (A) (A) (A) (A) (A)
                 (A) (A) (A) (A) (A) (A) (A) (A) (A) (A) (A) (A)
                 (A) (A) (A) (A) (A) (A) (A) (A) (A) (A) (A) (A)
                 (A) (A) (A) (A) (A) (A) (A) (A) (A) (A) (A) (A)
                 (A) (A) (A) (A) (A) (A) (A) (A) (A) (A) (A) (A)
                 (A) (A) (A) (A) (A) (A) (A) (A) (A) (A) (A) (A)
                 (A) (A) (A) (A) (A) (A) (A) (A) (A) (A) (A) (A)
                 (A) (A) (A) (A) (A) (A) (A) (A) (A) (A) (A) (A)
                 (A) (A) (A) (A) (A) (A) (A) (A) (A) (A) (A) (A)
                 (A) (A) (A) (A) (A) (A) (A) (A) (A) (A) (A) (A)
                 (A) (A) (A) (A) (A) (A) (A) (A) (A) (A) (A) (A)
                 (A) (A) (A) (A) (A) (A) (A) (A) (A) (A) (A) (A)
                 (A)
 The electronic state is 1-A.
 Alpha  occ. eigenvalues --  -19.62960 -19.61675 -10.59422 -10.57649 -10.53779
 Alpha  occ. eigenvalues --   -1.15136  -1.13732  -0.87009  -0.76349  -0.68026
 Alpha  occ. eigenvalues --   -0.60603  -0.57878  -0.53885  -0.51229  -0.49395
 Alpha  occ. eigenvalues --   -0.44812  -0.43630  -0.42103  -0.38815  -0.35389
 Alpha  occ. eigenvalues --   -0.34014
 Alpha virt. eigenvalues --   -0.00900   0.00385   0.01543   0.02055   0.03657
 Alpha virt. eigenvalues --    0.04415   0.05449   0.05915   0.07392   0.09402
 Alpha virt. eigenvalues --    0.10290   0.11764   0.12096   0.12422   0.13257
 Alpha virt. eigenvalues --    0.13693   0.14646   0.15138   0.16253   0.16969
 Alpha virt. eigenvalues --    0.18589   0.20108   0.21683   0.22821   0.23303
 Alpha virt. eigenvalues --    0.24365   0.25815   0.26898   0.28151   0.29186
 Alpha virt. eigenvalues --    0.30496   0.31287   0.31826   0.33555   0.34172
 Alpha virt. eigenvalues --    0.34664   0.35973   0.40057   0.40813   0.43822
 Alpha virt. eigenvalues --    0.47003   0.48563   0.51031   0.52011   0.57798
 Alpha virt. eigenvalues --    0.59870   0.61551   0.62830   0.67392   0.68575
 Alpha virt. eigenvalues --    0.69118   0.70593   0.72310   0.72893   0.74784
 Alpha virt. eigenvalues --    0.78788   0.79088   0.91840   0.96245   1.01417
 Alpha virt. eigenvalues --    1.02602   1.08407   1.15492   1.16377   1.20788
 Alpha virt. eigenvalues --    1.22084   1.24095   1.29818   1.33022   1.33608
 Alpha virt. eigenvalues --    1.37284   1.43412   1.44484   1.49869   1.53538
 Alpha virt. eigenvalues --    1.55161   1.57607   1.61492   1.61769   1.63555
 Alpha virt. eigenvalues --    1.64469   1.64799   1.69878   1.71312   1.75031
 Alpha virt. eigenvalues --    1.79411   1.82065   1.85352   1.87461   1.90680
 Alpha virt. eigenvalues --    1.95623   2.01932   2.04403   2.09339   2.12181
 Alpha virt. eigenvalues --    2.15178   2.18068   2.20699   2.30607   2.32220
 Alpha virt. eigenvalues --    2.40278   2.45916   2.49451   2.52715   2.56421
 Alpha virt. eigenvalues --    2.58556   2.60034   2.62724   2.63957   2.67750
 Alpha virt. eigenvalues --    2.71359   2.75465   2.82696   2.89031   2.93054
 Alpha virt. eigenvalues --    2.98814   3.05629   3.12549   3.16468   3.18938
 Alpha virt. eigenvalues --    3.22638   3.26200   3.32229   3.37116   3.44184
 Alpha virt. eigenvalues --    3.68989   3.81724   3.91191   3.94026   4.00247
 Alpha virt. eigenvalues --    4.04872   4.06684   4.19488   4.33215   5.16874
 Alpha virt. eigenvalues --    5.20483   5.49705   5.51316   5.73188   5.75861
 Alpha virt. eigenvalues --   23.89152  23.93357  23.96814  50.02227  50.04217
          Condensed to atoms (all electrons):
               1          2          3          4          5          6
     1  C    5.469805   0.412747   0.389463   0.031275  -0.042768  -0.060959
     2  H    0.412747   0.664647  -0.106207  -0.062744  -0.036450   0.025398
     3  H    0.389463  -0.106207   0.661318   0.009836   0.024769  -0.042770
     4  C    0.031275  -0.062744   0.009836   5.555914   0.384341   0.469060
     5  H   -0.042768  -0.036450   0.024769   0.384341   0.647020  -0.086745
     6  H   -0.060959   0.025398  -0.042770   0.469060  -0.086745   0.563947
     7  C   -0.026598   0.010494  -0.028304   0.034212  -0.004481  -0.056120
     8  H   -0.004108   0.009092  -0.007111   0.039617  -0.043037   0.021922
     9  H   -0.021358  -0.008488   0.012232  -0.034125   0.024225  -0.030393
    10  O    0.179736  -0.071714  -0.056860  -0.124673   0.018929   0.001680
    11  H    0.019603  -0.001033  -0.013174  -0.004810   0.000150   0.002403
    12  O    0.033203   0.001191  -0.001473  -0.083472  -0.030833   0.015361
    13  H    0.004987   0.000930  -0.000235  -0.004145   0.013153  -0.007449
               7          8          9         10         11         12
     1  C   -0.026598  -0.004108  -0.021358   0.179736   0.019603   0.033203
     2  H    0.010494   0.009092  -0.008488  -0.071714  -0.001033   0.001191
     3  H   -0.028304  -0.007111   0.012232  -0.056860  -0.013174  -0.001473
     4  C    0.034212   0.039617  -0.034125  -0.124673  -0.004810  -0.083472
     5  H   -0.004481  -0.043037   0.024225   0.018929   0.000150  -0.030833
     6  H   -0.056120   0.021922  -0.030393   0.001680   0.002403   0.015361
     7  C    5.506912   0.306469   0.441221   0.018779   0.000391   0.208984
     8  H    0.306469   0.640725  -0.077647  -0.024376  -0.000650  -0.017403
     9  H    0.441221  -0.077647   0.557575  -0.000922  -0.000653  -0.091154
    10  O    0.018779  -0.024376  -0.000922   8.131603   0.211198  -0.002094
    11  H    0.000391  -0.000650  -0.000653   0.211198   0.523124  -0.000040
    12  O    0.208984  -0.017403  -0.091154  -0.002094  -0.000040   7.995313
    13  H   -0.028430  -0.023985   0.019674   0.001148  -0.000037   0.246898
              13
     1  C    0.004987
     2  H    0.000930
     3  H   -0.000235
     4  C   -0.004145
     5  H    0.013153
     6  H   -0.007449
     7  C   -0.028430
     8  H   -0.023985
     9  H    0.019674
    10  O    0.001148
    11  H   -0.000037
    12  O    0.246898
    13  H    0.532606
 Mulliken charges:
               1
     1  C   -0.385028
     2  H    0.162136
     3  H    0.158517
     4  C   -0.210286
     5  H    0.131726
     6  H    0.184665
     7  C   -0.383528
     8  H    0.180491
     9  H    0.209812
    10  O   -0.282435
    11  H    0.263527
    12  O   -0.274483
    13  H    0.244886
 Sum of Mulliken charges =   0.00000
 Mulliken charges with hydrogens summed into heavy atoms:
               1
     1  C   -0.064375
     4  C    0.106105
     7  C    0.006775
    10  O   -0.018908
    12  O   -0.029596
 Electronic spatial extent (au):  <R**2>=            548.6825
 Charge=              0.0000 electrons
 Dipole moment (field-independent basis, Debye):
    X=             -2.4730    Y=              1.8369    Z=              1.4309  Tot=              3.3967
 Quadrupole moment (field-independent basis, Debye-Ang):
   XX=            -29.4942   YY=            -32.5018   ZZ=            -31.3793
   XY=              2.1540   XZ=              3.4576   YZ=              0.5789
 Traceless Quadrupole moment (field-independent basis, Debye-Ang):
   XX=              1.6309   YY=             -1.3767   ZZ=             -0.2542
   XY=              2.1540   XZ=              3.4576   YZ=              0.5789
 Octapole moment (field-independent basis, Debye-Ang**2):
  XXX=            -32.1263  YYY=             -3.1168  ZZZ=              0.6912  XYY=              0.2050
  XXY=              2.6193  XXZ=             10.5609  XZZ=              2.1126  YZZ=              0.0225
  YYZ=              0.0383  XYZ=              2.2235
 Hexadecapole moment (field-independent basis, Debye-Ang**3):
 XXXX=           -430.4077 YYYY=           -137.9684 ZZZZ=            -54.4823 XXXY=             49.8940
 XXXZ=             26.8963 YYYX=              7.0495 YYYZ=              1.7392 ZZZX=              2.3893
 ZZZY=              0.2195 XXYY=            -99.2031 XXZZ=            -88.0929 YYZZ=            -30.2722
 XXYZ=              3.4660 YYXZ=              1.1582 ZZXY=              0.6738
 N-N= 1.882695116455D+02 E-N=-1.008269066718D+03  KE= 2.684864621347D+02
 No NMR shielding tensors so no spin-rotation constants.
 Leave Link  601 at Mon Nov 10 19:53:19 2025, MaxMem=    33554432 cpu:         0.0
 (Enter /opt/programs/gaussian/g09/d_pgi133/l9999.exe)
 1\1\GINC-EXADE5\SP\RM062X\6-311++G(d,p)\C3H8O2\APINTO\10-Nov-2025\0\\#
 p M062X/6-311++G(d,p)\\SP\\0,1\C,0,1.461379,-0.211143,-0.081098\H,0,1.
 721634,-1.182289,0.368952\H,0,2.119796,-0.07652,-0.952122\C,0,-0.01397
 8,-0.227618,-0.535177\H,0,-0.362819,-1.267484,-0.583532\H,0,-0.105694,
 0.17404,-1.550381\C,0,-0.966492,0.585127,0.351868\H,0,-0.928094,0.2307
 02,1.39221\H,0,-0.664727,1.633352,0.361985\O,0,1.651576,0.832061,0.873
 318\H,0,2.584888,0.843432,1.118129\O,0,-2.297551,0.559823,-0.156345\H,
 0,-2.612292,-0.35219,-0.105072\\Version=ES64L-G09RevD.01\State=1-A\HF=
 -269.5247277\RMSD=2.758e-09\Dipole=0.9476794,-0.9421737,0.0094895\Quad
 rupole=1.5544691,-0.3776985,-1.1767707,2.9226508,-0.3475115,-0.0066696
 \PG=C01 [X(C3H8O2)]\\@


 JUST WHEN YOU THINK YOU'VE GOT THE WORLD ON A STRING,
 YOU FIND OUT IT'S YOUR LEASH.
 Job cpu time:       0 days  0 hours  0 minutes 26.6 seconds.
 File lengths (MBytes):  RWF=     16 Int=      0 D2E=      0 Chk=      2 Scr=      1
 Normal termination of Gaussian 09 at Mon Nov 10 19:53:19 2025.
