 Entering Gaussian System, Link 0=g09
 Input=xby.com
 Output=xby.log
 Initial command:
 /opt/programs/gaussian/g09/d_pgi133/l1.exe "/scratch/users/apinto/lixo/Gau-1272592.inp" -scrdir="/scratch/users/apinto/lixo/"
 Entering Link 1 = /opt/programs/gaussian/g09/d_pgi133/l1.exe PID=   1272594.
  
 Copyright (c) 1988,1990,1992,1993,1995,1998,2003,2009,2013,
            Gaussian, Inc.  All Rights Reserved.
  
 This is part of the Gaussian(R) 09 program.  It is based on
 the Gaussian(R) 03 system (copyright 2003, Gaussian, Inc.),
 the Gaussian(R) 98 system (copyright 1998, Gaussian, Inc.),
 the Gaussian(R) 94 system (copyright 1995, Gaussian, Inc.),
 the Gaussian 92(TM) system (copyright 1992, Gaussian, Inc.),
 the Gaussian 90(TM) system (copyright 1990, Gaussian, Inc.),
 the Gaussian 88(TM) system (copyright 1988, Gaussian, Inc.),
 the Gaussian 86(TM) system (copyright 1986, Carnegie Mellon
 University), and the Gaussian 82(TM) system (copyright 1983,
 Carnegie Mellon University). Gaussian is a federally registered
 trademark of Gaussian, Inc.
  
 This software contains proprietary and confidential information,
 including trade secrets, belonging to Gaussian, Inc.
  
 This software is provided under written license and may be
 used, copied, transmitted, or stored only in accord with that
 written license.
  
 The following legend is applicable only to US Government
 contracts under FAR:
  
                    RESTRICTED RIGHTS LEGEND
  
 Use, reproduction and disclosure by the US Government is
 subject to restrictions as set forth in subparagraphs (a)
 and (c) of the Commercial Computer Software - Restricted
 Rights clause in FAR 52.227-19.
  
 Gaussian, Inc.
 340 Quinnipiac St., Bldg. 40, Wallingford CT 06492
  
  
 ---------------------------------------------------------------
 Warning -- This program may not be used in any manner that
 competes with the business of Gaussian, Inc. or will provide
 assistance to any competitor of Gaussian, Inc.  The licensee
 of this program is prohibited from giving any competitor of
 Gaussian, Inc. access to this program.  By using this program,
 the user acknowledges that Gaussian, Inc. is engaged in the
 business of creating and licensing software in the field of
 computational chemistry and represents and warrants to the
 licensee that it is not a competitor of Gaussian, Inc. and that
 it will not use this program in any manner prohibited above.
 ---------------------------------------------------------------
  

 Cite this work as:
 Gaussian 09, Revision D.01,
 M. J. Frisch, G. W. Trucks, H. B. Schlegel, G. E. Scuseria, 
 M. A. Robb, J. R. Cheeseman, G. Scalmani, V. Barone, B. Mennucci, 
 G. A. Petersson, H. Nakatsuji, M. Caricato, X. Li, H. P. Hratchian, 
 A. F. Izmaylov, J. Bloino, G. Zheng, J. L. Sonnenberg, M. Hada, 
 M. Ehara, K. Toyota, R. Fukuda, J. Hasegawa, M. Ishida, T. Nakajima, 
 Y. Honda, O. Kitao, H. Nakai, T. Vreven, J. A. Montgomery, Jr., 
 J. E. Peralta, F. Ogliaro, M. Bearpark, J. J. Heyd, E. Brothers, 
 K. N. Kudin, V. N. Staroverov, T. Keith, R. Kobayashi, J. Normand, 
 K. Raghavachari, A. Rendell, J. C. Burant, S. S. Iyengar, J. Tomasi, 
 M. Cossi, N. Rega, J. M. Millam, M. Klene, J. E. Knox, J. B. Cross, 
 V. Bakken, C. Adamo, J. Jaramillo, R. Gomperts, R. E. Stratmann, 
 O. Yazyev, A. J. Austin, R. Cammi, C. Pomelli, J. W. Ochterski, 
 R. L. Martin, K. Morokuma, V. G. Zakrzewski, G. A. Voth, 
 P. Salvador, J. J. Dannenberg, S. Dapprich, A. D. Daniels, 
 O. Farkas, J. B. Foresman, J. V. Ortiz, J. Cioslowski, 
 and D. J. Fox, Gaussian, Inc., Wallingford CT, 2013.
 
 ******************************************
 Gaussian 09:  ES64L-G09RevD.01 24-Apr-2013
                10-Nov-2025 
 ******************************************
 ----------------------
 #p M062X/6-311++G(d,p)
 ----------------------
 1/38=1/1;
 2/12=2,17=6,18=5,40=1/2;
 3/5=4,6=6,7=1111,11=2,16=1,25=1,30=1,74=-55/1,2,3;
 4//1;
 5/5=2,38=5/2;
 6/7=2,8=2,9=2,10=2,28=1/1;
 99/5=1,9=1/99;
 Leave Link    1 at Mon Nov 10 19:54:11 2025, MaxMem=           0 cpu:         0.0
 (Enter /opt/programs/gaussian/g09/d_pgi133/l101.exe)
 --
 SP
 --
 Symbolic Z-matrix:
 Charge =  0 Multiplicity = 1
 C                     1.4702   -0.18911  -0.10446 
 H                     1.84636  -1.19845   0.12123 
 H                     2.06969   0.19382  -0.94419 
 C                    -0.01862  -0.25952  -0.51871 
 H                    -0.3744   -1.29469  -0.42687 
 H                    -0.13158   0.00914  -1.57395 
 C                    -0.95945   0.63703   0.2982 
 H                    -0.89279   0.39029   1.3655 
 H                    -0.67342   1.68625   0.19568 
 O                     1.60978   0.66386   1.0314 
 H                     2.54781   0.71021   1.2529 
 O                    -2.30004   0.54737  -0.17748 
 H                    -2.60591  -0.35491  -0.01652 
 
 NAtoms=     13 NQM=       13 NQMF=       0 NMMI=      0 NMMIF=      0
                NMic=       0 NMicF=      0.
                    Isotopes and Nuclear Properties:
 (Nuclear quadrupole moments (NQMom) in fm**2, nuclear magnetic moments (NMagM)
  in nuclear magnetons)

  Atom         1           2           3           4           5           6           7           8           9          10
 IAtWgt=          12           1           1          12           1           1          12           1           1          16
 AtmWgt=  12.0000000   1.0078250   1.0078250  12.0000000   1.0078250   1.0078250  12.0000000   1.0078250   1.0078250  15.9949146
 NucSpn=           0           1           1           0           1           1           0           1           1           0
 AtZEff=   0.0000000   0.0000000   0.0000000   0.0000000   0.0000000   0.0000000   0.0000000   0.0000000   0.0000000   0.0000000
 NQMom=    0.0000000   0.0000000   0.0000000   0.0000000   0.0000000   0.0000000   0.0000000   0.0000000   0.0000000   0.0000000
 NMagM=    0.0000000   2.7928460   2.7928460   0.0000000   2.7928460   2.7928460   0.0000000   2.7928460   2.7928460   0.0000000
 AtZNuc=   6.0000000   1.0000000   1.0000000   6.0000000   1.0000000   1.0000000   6.0000000   1.0000000   1.0000000   8.0000000

  Atom        11          12          13
 IAtWgt=           1          16           1
 AtmWgt=   1.0078250  15.9949146   1.0078250
 NucSpn=           1           0           1
 AtZEff=   0.0000000   0.0000000   0.0000000
 NQMom=    0.0000000   0.0000000   0.0000000
 NMagM=    2.7928460   0.0000000   2.7928460
 AtZNuc=   1.0000000   8.0000000   1.0000000
 Leave Link  101 at Mon Nov 10 19:54:11 2025, MaxMem=    33554432 cpu:         0.0
 (Enter /opt/programs/gaussian/g09/d_pgi133/l202.exe)
                          Input orientation:                          
 ---------------------------------------------------------------------
 Center     Atomic      Atomic             Coordinates (Angstroms)
 Number     Number       Type             X           Y           Z
 ---------------------------------------------------------------------
      1          6           0        1.470196   -0.189106   -0.104463
      2          1           0        1.846358   -1.198452    0.121226
      3          1           0        2.069685    0.193821   -0.944190
      4          6           0       -0.018616   -0.259519   -0.518707
      5          1           0       -0.374404   -1.294688   -0.426871
      6          1           0       -0.131575    0.009136   -1.573953
      7          6           0       -0.959453    0.637029    0.298204
      8          1           0       -0.892785    0.390285    1.365504
      9          1           0       -0.673422    1.686248    0.195679
     10          8           0        1.609781    0.663864    1.031397
     11          1           0        2.547810    0.710207    1.252903
     12          8           0       -2.300036    0.547372   -0.177475
     13          1           0       -2.605913   -0.354906   -0.016519
 ---------------------------------------------------------------------
                    Distance matrix (angstroms):
                    1          2          3          4          5
     1  C    0.000000
     2  H    1.100551   0.000000
     3  H    1.100528   1.767317   0.000000
     4  C    1.546970   2.183858   2.178888   0.000000
     5  H    2.174582   2.289423   2.908066   1.098451   0.000000
     6  H    2.182744   2.871257   2.297010   1.094751   1.753488
     7  C    2.597659   3.357512   3.303885   1.535030   2.144655
     8  H    2.842565   3.402237   3.761584   2.176389   2.514053
     9  H    2.863937   3.830970   3.324346   2.173736   3.059895
    10  O    1.427312   2.086289   2.082161   2.430460   3.146341
    11  H    1.952552   2.327167   2.307049   3.265810   3.921808
    12  O    3.842184   4.508848   4.450541   2.443847   2.676461
    13  H    4.080427   4.533570   4.798218   2.637309   2.455852
                    6          7          8          9         10
     6  H    0.000000
     7  C    2.141169   0.000000
     8  H    3.060249   1.097477   0.000000
     9  H    2.497579   1.092330   1.759583   0.000000
    10  O    3.201381   2.671939   2.539549   2.637557   0.000000
    11  H    3.957489   3.635615   3.457271   3.527990   0.964941
    12  O    2.634781   1.425297   2.094234   2.020434   4.094095
    13  H    2.946265   1.947772   2.323813   2.818840   4.461849
                   11         12         13
    11  H    0.000000
    12  O    5.057085   0.000000
    13  H    5.413572   0.966216   0.000000
 Stoichiometry    C3H8O2
 Framework group  C1[X(C3H8O2)]
 Deg. of freedom    33
 Full point group                 C1      NOp   1
 Largest Abelian subgroup         C1      NOp   1
 Largest concise Abelian subgroup C1      NOp   1
                         Standard orientation:                         
 ---------------------------------------------------------------------
 Center     Atomic      Atomic             Coordinates (Angstroms)
 Number     Number       Type             X           Y           Z
 ---------------------------------------------------------------------
      1          6           0        1.459717    0.580195    0.017392
      2          1           0        1.924485    1.099129   -0.834613
      3          1           0        1.897289    1.011740    0.930333
      4          6           0       -0.068924    0.817558    0.011718
      5          1           0       -0.345285    1.394851   -0.881003
      6          1           0       -0.360886    1.428285    0.872097
      7          6           0       -0.920897   -0.459199    0.030433
      8          1           0       -0.673965   -1.097056   -0.827833
      9          1           0       -0.715804   -1.043260    0.930430
     10          8           0        1.725432   -0.820863   -0.043026
     11          1           0        2.682266   -0.941949   -0.012740
     12          8           0       -2.311874   -0.150969    0.071050
     13          1           0       -2.535929    0.291589   -0.758115
 ---------------------------------------------------------------------
 Rotational constants (GHZ):     12.4516785      2.5708496      2.2319024
 Leave Link  202 at Mon Nov 10 19:54:11 2025, MaxMem=    33554432 cpu:         0.0
 (Enter /opt/programs/gaussian/g09/d_pgi133/l301.exe)
 Standard basis: 6-311++G(d,p) (5D, 7F)
 Ernie: Thresh=  0.10000D-02 Tol=  0.10000D-05 Strict=F.
 There are   171 symmetry adapted cartesian basis functions of A   symmetry.
 There are   166 symmetry adapted basis functions of A   symmetry.
   166 basis functions,   252 primitive gaussians,   171 cartesian basis functions
    21 alpha electrons       21 beta electrons
       nuclear repulsion energy       188.2027791024 Hartrees.
 IExCor= 4336 DFT=T Ex+Corr=M062X ExCW=0 ScaHFX=  0.540000
 ScaDFX=  1.000000  1.000000  1.000000  1.000000 ScalE2=  1.000000  1.000000
 IRadAn=      0 IRanWt=     -1 IRanGd=            0 ICorTp=0 IEmpDi=  4
 NAtoms=   13 NActive=   13 NUniq=   13 SFac= 1.00D+00 NAtFMM=   60 NAOKFM=F Big=F
 Integral buffers will be    131072 words long.
 Raffenetti 2 integral format.
 Two-electron integral symmetry is turned on.
 Leave Link  301 at Mon Nov 10 19:54:11 2025, MaxMem=    33554432 cpu:         0.0
 (Enter /opt/programs/gaussian/g09/d_pgi133/l302.exe)
 NPDir=0 NMtPBC=     1 NCelOv=     1 NCel=       1 NClECP=     1 NCelD=      1
         NCelK=      1 NCelE2=     1 NClLst=     1 CellRange=     0.0.
 One-electron integrals computed using PRISM.
 NBasis=   166 RedAO= T EigKep=  4.09D-05  NBF=   166
 NBsUse=   166 1.00D-06 EigRej= -1.00D+00 NBFU=   166
 Precomputing XC quadrature grid using
 IXCGrd= 4 IRadAn=           0 IRanWt=          -1 IRanGd=           0 AccXCQ= 0.00D+00.
 Generated NRdTot=       0 NPtTot=           0 NUsed=           0 NTot=          32
 NSgBfM=   171   171   171   171   171 MxSgAt=    13 MxSgA2=    13.
 Leave Link  302 at Mon Nov 10 19:54:11 2025, MaxMem=    33554432 cpu:         0.1
 (Enter /opt/programs/gaussian/g09/d_pgi133/l303.exe)
 DipDrv:  MaxL=1.
 Leave Link  303 at Mon Nov 10 19:54:11 2025, MaxMem=    33554432 cpu:         0.0
 (Enter /opt/programs/gaussian/g09/d_pgi133/l401.exe)
 ExpMin= 3.60D-02 ExpMax= 8.59D+03 ExpMxC= 1.30D+03 IAcc=3 IRadAn=         5 AccDes= 0.00D+00
 Harris functional with IExCor= 1009 and IRadAn=       5 diagonalized for initial guess.
 HarFok:  IExCor= 1009 AccDes= 0.00D+00 IRadAn=         5 IDoV= 1 UseB2=F ITyADJ=14
 ICtDFT=  3500011 ScaDFX=  1.000000  1.000000  1.000000  1.000000
 FoFCou: FMM=F IPFlag=           0 FMFlag=      100000 FMFlg1=           0
         NFxFlg=           0 DoJE=T BraDBF=F KetDBF=T FulRan=T
         wScrn=  0.000000 ICntrl=     500 IOpCl=  0 I1Cent=   200000004 NGrid=           0
         NMat0=    1 NMatS0=      1 NMatT0=    0 NMatD0=    1 NMtDS0=    0 NMtDT0=    0
 Petite list used in FoFCou.
 Harris En= -269.436948404623    
 JPrj=0 DoOrth=F DoCkMO=F.
 Leave Link  401 at Mon Nov 10 19:54:13 2025, MaxMem=    33554432 cpu:         1.5
 (Enter /opt/programs/gaussian/g09/d_pgi133/l502.exe)
 Closed shell SCF:
 Using DIIS extrapolation, IDIIS=  1040.
 Integral symmetry usage will be decided dynamically.
 IVT=      108587 IEndB=      108587 NGot=    33554432 MDV=    33491898
 LenX=    33491898 LenY=    33462216
 Requested convergence on RMS density matrix=1.00D-08 within 128 cycles.
 Requested convergence on MAX density matrix=1.00D-06.
 Requested convergence on             energy=1.00D-06.
 No special actions if energy rises.
 Fock matrices will be formed incrementally for  20 cycles.

 Cycle   1  Pass 1  IDiag  1:
 FoFJK:  IHMeth= 1 ICntrl=       0 DoSepK=F KAlg= 0 I1Cent=   0 FoldK=F
 IRaf= 980000000 NMat=   1 IRICut=       1 DoRegI=T DoRafI=F ISym2E= 0.
 FoFCou: FMM=F IPFlag=           0 FMFlag=      100000 FMFlg1=           0
         NFxFlg=           0 DoJE=F BraDBF=F KetDBF=F FulRan=T
         wScrn=  0.000000 ICntrl=       0 IOpCl=  0 I1Cent=           0 NGrid=           0
         NMat0=    1 NMatS0=      1 NMatT0=    0 NMatD0=    1 NMtDS0=    0 NMtDT0=    0
 Symmetry not used in FoFCou.
 E= -269.357088766031    
 DIIS: error= 2.97D-02 at cycle   1 NSaved=   1.
 NSaved= 1 IEnMin= 1 EnMin= -269.357088766031     IErMin= 1 ErrMin= 2.97D-02
 ErrMax= 2.97D-02  0.00D+00 EMaxC= 1.00D-01 BMatC= 2.33D-01 BMatP= 2.33D-01
 IDIUse=3 WtCom= 7.03D-01 WtEn= 2.97D-01
 Coeff-Com:  0.100D+01
 Coeff-En:   0.100D+01
 Coeff:      0.100D+01
 Gap=     0.301 Goal=   None    Shift=    0.000
 GapD=    0.301 DampG=1.000 DampE=0.500 DampFc=0.5000 IDamp=-1.
 Damping current iteration by 5.00D-01
 RMSDP=6.27D-03 MaxDP=1.27D-01              OVMax= 1.36D-01

 Cycle   2  Pass 1  IDiag  1:
 RMSU=  3.12D-03    CP:  9.78D-01
 E= -269.437213920868     Delta-E=       -0.080125154837 Rises=F Damp=T
 DIIS: error= 6.76D-03 at cycle   2 NSaved=   2.
 NSaved= 2 IEnMin= 2 EnMin= -269.437213920868     IErMin= 2 ErrMin= 6.76D-03
 ErrMax= 6.76D-03  0.00D+00 EMaxC= 1.00D-01 BMatC= 1.53D-02 BMatP= 2.33D-01
 IDIUse=3 WtCom= 9.32D-01 WtEn= 6.76D-02
 Coeff-Com: -0.372D-01 0.104D+01
 Coeff-En:   0.000D+00 0.100D+01
 Coeff:     -0.347D-01 0.103D+01
 Gap=     0.341 Goal=   None    Shift=    0.000
 RMSDP=1.90D-03 MaxDP=7.92D-02 DE=-8.01D-02 OVMax= 7.09D-02

 Cycle   3  Pass 1  IDiag  1:
 RMSU=  1.85D-03    CP:  9.53D-01  9.14D-01
 E= -269.521106064189     Delta-E=       -0.083892143321 Rises=F Damp=F
 DIIS: error= 5.10D-03 at cycle   3 NSaved=   3.
 NSaved= 3 IEnMin= 3 EnMin= -269.521106064189     IErMin= 3 ErrMin= 5.10D-03
 ErrMax= 5.10D-03  0.00D+00 EMaxC= 1.00D-01 BMatC= 4.00D-03 BMatP= 1.53D-02
 IDIUse=3 WtCom= 9.49D-01 WtEn= 5.10D-02
 Coeff-Com: -0.785D-01 0.315D+00 0.763D+00
 Coeff-En:   0.000D+00 0.000D+00 0.100D+01
 Coeff:     -0.745D-01 0.299D+00 0.775D+00
 Gap=     0.334 Goal=   None    Shift=    0.000
 RMSDP=3.52D-04 MaxDP=8.76D-03 DE=-8.39D-02 OVMax= 1.28D-02

 Cycle   4  Pass 1  IDiag  1:
 RMSU=  3.07D-04    CP:  9.53D-01  9.68D-01  9.83D-01
 E= -269.523254742187     Delta-E=       -0.002148677998 Rises=F Damp=F
 DIIS: error= 1.65D-03 at cycle   4 NSaved=   4.
 NSaved= 4 IEnMin= 4 EnMin= -269.523254742187     IErMin= 4 ErrMin= 1.65D-03
 ErrMax= 1.65D-03  0.00D+00 EMaxC= 1.00D-01 BMatC= 7.24D-04 BMatP= 4.00D-03
 IDIUse=3 WtCom= 9.84D-01 WtEn= 1.65D-02
 Coeff-Com: -0.319D-01 0.859D-01 0.372D+00 0.574D+00
 Coeff-En:   0.000D+00 0.000D+00 0.962D-01 0.904D+00
 Coeff:     -0.313D-01 0.845D-01 0.368D+00 0.579D+00
 Gap=     0.332 Goal=   None    Shift=    0.000
 RMSDP=1.55D-04 MaxDP=3.49D-03 DE=-2.15D-03 OVMax= 4.65D-03

 Cycle   5  Pass 1  IDiag  1:
 RMSU=  1.02D-04    CP:  9.51D-01  9.54D-01  9.90D-01  6.64D-01
 E= -269.523834563155     Delta-E=       -0.000579820968 Rises=F Damp=F
 DIIS: error= 2.08D-04 at cycle   5 NSaved=   5.
 NSaved= 5 IEnMin= 5 EnMin= -269.523834563155     IErMin= 5 ErrMin= 2.08D-04
 ErrMax= 2.08D-04  0.00D+00 EMaxC= 1.00D-01 BMatC= 1.04D-05 BMatP= 7.24D-04
 IDIUse=3 WtCom= 9.98D-01 WtEn= 2.08D-03
 Coeff-Com: -0.398D-02 0.584D-02 0.545D-01 0.155D+00 0.788D+00
 Coeff-En:   0.000D+00 0.000D+00 0.000D+00 0.000D+00 0.100D+01
 Coeff:     -0.397D-02 0.583D-02 0.544D-01 0.155D+00 0.789D+00
 Gap=     0.332 Goal=   None    Shift=    0.000
 RMSDP=3.09D-05 MaxDP=1.09D-03 DE=-5.80D-04 OVMax= 5.85D-04

 Cycle   6  Pass 1  IDiag  1:
 RMSU=  2.21D-05    CP:  9.51D-01  9.50D-01  9.95D-01  7.09D-01  9.16D-01
 E= -269.523843157319     Delta-E=       -0.000008594164 Rises=F Damp=F
 DIIS: error= 2.58D-05 at cycle   6 NSaved=   6.
 NSaved= 6 IEnMin= 6 EnMin= -269.523843157319     IErMin= 6 ErrMin= 2.58D-05
 ErrMax= 2.58D-05  0.00D+00 EMaxC= 1.00D-01 BMatC= 1.20D-07 BMatP= 1.04D-05
 IDIUse=1 WtCom= 1.00D+00 WtEn= 0.00D+00
 Coeff-Com:  0.841D-03-0.217D-02-0.818D-02-0.892D-02 0.238D-01 0.995D+00
 Coeff:      0.841D-03-0.217D-02-0.818D-02-0.892D-02 0.238D-01 0.995D+00
 Gap=     0.332 Goal=   None    Shift=    0.000
 RMSDP=9.48D-06 MaxDP=3.60D-04 DE=-8.59D-06 OVMax= 1.43D-04

 Cycle   7  Pass 1  IDiag  1:
 RMSU=  4.35D-06    CP:  9.51D-01  9.48D-01  9.96D-01  7.14D-01  9.49D-01
                    CP:  1.12D+00
 E= -269.523843313262     Delta-E=       -0.000000155943 Rises=F Damp=F
 DIIS: error= 7.73D-06 at cycle   7 NSaved=   7.
 NSaved= 7 IEnMin= 7 EnMin= -269.523843313262     IErMin= 7 ErrMin= 7.73D-06
 ErrMax= 7.73D-06  0.00D+00 EMaxC= 1.00D-01 BMatC= 2.48D-08 BMatP= 1.20D-07
 IDIUse=1 WtCom= 1.00D+00 WtEn= 0.00D+00
 Coeff-Com:  0.499D-03-0.106D-02-0.568D-02-0.109D-01-0.320D-01 0.327D+00
 Coeff-Com:  0.723D+00
 Coeff:      0.499D-03-0.106D-02-0.568D-02-0.109D-01-0.320D-01 0.327D+00
 Coeff:      0.723D+00
 Gap=     0.332 Goal=   None    Shift=    0.000
 RMSDP=1.49D-06 MaxDP=4.26D-05 DE=-1.56D-07 OVMax= 3.60D-05

 Cycle   8  Pass 1  IDiag  1:
 RMSU=  8.13D-07    CP:  9.51D-01  9.48D-01  9.96D-01  7.15D-01  9.51D-01
                    CP:  1.16D+00  9.01D-01
 E= -269.523843334718     Delta-E=       -0.000000021455 Rises=F Damp=F
 DIIS: error= 3.72D-06 at cycle   8 NSaved=   8.
 NSaved= 8 IEnMin= 8 EnMin= -269.523843334718     IErMin= 8 ErrMin= 3.72D-06
 ErrMax= 3.72D-06  0.00D+00 EMaxC= 1.00D-01 BMatC= 3.21D-09 BMatP= 2.48D-08
 IDIUse=1 WtCom= 1.00D+00 WtEn= 0.00D+00
 Coeff-Com:  0.119D-03-0.231D-03-0.155D-02-0.345D-02-0.145D-01 0.490D-01
 Coeff-Com:  0.293D+00 0.678D+00
 Coeff:      0.119D-03-0.231D-03-0.155D-02-0.345D-02-0.145D-01 0.490D-01
 Coeff:      0.293D+00 0.678D+00
 Gap=     0.332 Goal=   None    Shift=    0.000
 RMSDP=5.51D-07 MaxDP=2.13D-05 DE=-2.15D-08 OVMax= 1.57D-05

 Cycle   9  Pass 1  IDiag  1:
 RMSU=  2.99D-07    CP:  9.51D-01  9.48D-01  9.96D-01  7.15D-01  9.52D-01
                    CP:  1.16D+00  9.69D-01  8.70D-01
 E= -269.523843337280     Delta-E=       -0.000000002562 Rises=F Damp=F
 DIIS: error= 9.19D-07 at cycle   9 NSaved=   9.
 NSaved= 9 IEnMin= 9 EnMin= -269.523843337280     IErMin= 9 ErrMin= 9.19D-07
 ErrMax= 9.19D-07  0.00D+00 EMaxC= 1.00D-01 BMatC= 2.14D-10 BMatP= 3.21D-09
 IDIUse=1 WtCom= 1.00D+00 WtEn= 0.00D+00
 Coeff-Com: -0.239D-05 0.910D-05-0.769D-04-0.283D-03-0.238D-02-0.957D-02
 Coeff-Com:  0.426D-01 0.232D+00 0.738D+00
 Coeff:     -0.239D-05 0.910D-05-0.769D-04-0.283D-03-0.238D-02-0.957D-02
 Coeff:      0.426D-01 0.232D+00 0.738D+00
 Gap=     0.332 Goal=   None    Shift=    0.000
 RMSDP=1.18D-07 MaxDP=2.98D-06 DE=-2.56D-09 OVMax= 3.78D-06

 Cycle  10  Pass 1  IDiag  1:
 RMSU=  8.93D-08    CP:  9.51D-01  9.48D-01  9.96D-01  7.15D-01  9.52D-01
                    CP:  1.16D+00  9.78D-01  9.31D-01  1.02D+00
 E= -269.523843337433     Delta-E=       -0.000000000154 Rises=F Damp=F
 DIIS: error= 3.12D-07 at cycle  10 NSaved=  10.
 NSaved=10 IEnMin=10 EnMin= -269.523843337433     IErMin=10 ErrMin= 3.12D-07
 ErrMax= 3.12D-07  0.00D+00 EMaxC= 1.00D-01 BMatC= 3.55D-11 BMatP= 2.14D-10
 IDIUse=1 WtCom= 1.00D+00 WtEn= 0.00D+00
 Coeff-Com: -0.142D-04 0.292D-04 0.139D-03 0.269D-03 0.651D-03-0.931D-02
 Coeff-Com: -0.195D-01 0.104D-01 0.325D+00 0.693D+00
 Coeff:     -0.142D-04 0.292D-04 0.139D-03 0.269D-03 0.651D-03-0.931D-02
 Coeff:     -0.195D-01 0.104D-01 0.325D+00 0.693D+00
 Gap=     0.332 Goal=   None    Shift=    0.000
 RMSDP=4.75D-08 MaxDP=1.23D-06 DE=-1.54D-10 OVMax= 1.74D-06

 Cycle  11  Pass 1  IDiag  1:
 RMSU=  2.47D-08    CP:  9.51D-01  9.48D-01  9.96D-01  7.15D-01  9.52D-01
                    CP:  1.16D+00  9.85D-01  9.43D-01  1.09D+00  8.79D-01
 E= -269.523843337467     Delta-E=       -0.000000000033 Rises=F Damp=F
 DIIS: error= 3.78D-08 at cycle  11 NSaved=  11.
 NSaved=11 IEnMin=11 EnMin= -269.523843337467     IErMin=11 ErrMin= 3.78D-08
 ErrMax= 3.78D-08  0.00D+00 EMaxC= 1.00D-01 BMatC= 4.10D-13 BMatP= 3.55D-11
 IDIUse=1 WtCom= 1.00D+00 WtEn= 0.00D+00
 Coeff-Com:  0.929D-07 0.114D-06 0.786D-05 0.134D-04 0.985D-04 0.244D-03
 Coeff-Com: -0.270D-02-0.106D-01-0.259D-01 0.260D-01 0.101D+01
 Coeff:      0.929D-07 0.114D-06 0.786D-05 0.134D-04 0.985D-04 0.244D-03
 Coeff:     -0.270D-02-0.106D-01-0.259D-01 0.260D-01 0.101D+01
 Gap=     0.332 Goal=   None    Shift=    0.000
 RMSDP=1.19D-08 MaxDP=3.00D-07 DE=-3.31D-11 OVMax= 6.02D-07

 Cycle  12  Pass 1  IDiag  1:
 RMSU=  7.14D-09    CP:  9.51D-01  9.48D-01  9.96D-01  7.15D-01  9.52D-01
                    CP:  1.16D+00  9.86D-01  9.45D-01  1.11D+00  9.36D-01
                    CP:  1.15D+00
 E= -269.523843337473     Delta-E=       -0.000000000007 Rises=F Damp=F
 DIIS: error= 8.10D-09 at cycle  12 NSaved=  12.
 NSaved=12 IEnMin=12 EnMin= -269.523843337473     IErMin=12 ErrMin= 8.10D-09
 ErrMax= 8.10D-09  0.00D+00 EMaxC= 1.00D-01 BMatC= 2.90D-14 BMatP= 4.10D-13
 IDIUse=1 WtCom= 1.00D+00 WtEn= 0.00D+00
 Coeff-Com:  0.796D-06-0.157D-05-0.582D-05-0.125D-04-0.240D-04 0.509D-03
 Coeff-Com:  0.700D-03-0.208D-02-0.206D-01-0.353D-01 0.121D+00 0.936D+00
 Coeff:      0.796D-06-0.157D-05-0.582D-05-0.125D-04-0.240D-04 0.509D-03
 Coeff:      0.700D-03-0.208D-02-0.206D-01-0.353D-01 0.121D+00 0.936D+00
 Gap=     0.332 Goal=   None    Shift=    0.000
 RMSDP=3.08D-09 MaxDP=9.54D-08 DE=-6.54D-12 OVMax= 1.60D-07

 SCF Done:  E(RM062X) =  -269.523843337     A.U. after   12 cycles
            NFock= 12  Conv=0.31D-08     -V/T= 2.0039
 KE= 2.684851264039D+02 PE=-1.008140352154D+03 EE= 2.819286033101D+02
 Leave Link  502 at Mon Nov 10 19:54:38 2025, MaxMem=    33554432 cpu:        24.7
 (Enter /opt/programs/gaussian/g09/d_pgi133/l601.exe)
 Copying SCF densities to generalized density rwf, IOpCl= 0 IROHF=0.

 **********************************************************************

            Population analysis using the SCF density.

 **********************************************************************

 Orbital symmetries:
       Occupied  (A) (A) (A) (A) (A) (A) (A) (A) (A) (A) (A) (A)
                 (A) (A) (A) (A) (A) (A) (A) (A) (A)
       Virtual   (A) (A) (A) (A) (A) (A) (A) (A) (A) (A) (A) (A)
                 (A) (A) (A) (A) (A) (A) (A) (A) (A) (A) (A) (A)
                 (A) (A) (A) (A) (A) (A) (A) (A) (A) (A) (A) (A)
                 (A) (A) (A) (A) (A) (A) (A) (A) (A) (A) (A) (A)
                 (A) (A) (A) (A) (A) (A) (A) (A) (A) (A) (A) (A)
                 (A) (A) (A) (A) (A) (A) (A) (A) (A) (A) (A) (A)
                 (A) (A) (A) (A) (A) (A) (A) (A) (A) (A) (A) (A)
                 (A) (A) (A) (A) (A) (A) (A) (A) (A) (A) (A) (A)
                 (A) (A) (A) (A) (A) (A) (A) (A) (A) (A) (A) (A)
                 (A) (A) (A) (A) (A) (A) (A) (A) (A) (A) (A) (A)
                 (A) (A) (A) (A) (A) (A) (A) (A) (A) (A) (A) (A)
                 (A) (A) (A) (A) (A) (A) (A) (A) (A) (A) (A) (A)
                 (A)
 The electronic state is 1-A.
 Alpha  occ. eigenvalues --  -19.62956 -19.61645 -10.59420 -10.57636 -10.53786
 Alpha  occ. eigenvalues --   -1.15120  -1.13704  -0.86932  -0.76345  -0.68026
 Alpha  occ. eigenvalues --   -0.60770  -0.57250  -0.54520  -0.51200  -0.48967
 Alpha  occ. eigenvalues --   -0.44757  -0.43966  -0.41792  -0.39160  -0.35040
 Alpha  occ. eigenvalues --   -0.34110
 Alpha virt. eigenvalues --   -0.00874   0.00416   0.01560   0.02050   0.03761
 Alpha virt. eigenvalues --    0.04401   0.05369   0.05878   0.07316   0.09449
 Alpha virt. eigenvalues --    0.10368   0.11631   0.12171   0.12659   0.13336
 Alpha virt. eigenvalues --    0.13665   0.14658   0.15214   0.15897   0.16925
 Alpha virt. eigenvalues --    0.18279   0.20084   0.22066   0.22849   0.23423
 Alpha virt. eigenvalues --    0.24522   0.25696   0.26770   0.27758   0.29700
 Alpha virt. eigenvalues --    0.30255   0.31300   0.31884   0.33623   0.34198
 Alpha virt. eigenvalues --    0.34926   0.36031   0.40132   0.40997   0.44260
 Alpha virt. eigenvalues --    0.47115   0.48201   0.50989   0.51896   0.57932
 Alpha virt. eigenvalues --    0.60026   0.62117   0.62830   0.67941   0.68512
 Alpha virt. eigenvalues --    0.68849   0.70885   0.72593   0.72830   0.74099
 Alpha virt. eigenvalues --    0.78762   0.79133   0.91766   0.96092   1.00417
 Alpha virt. eigenvalues --    1.04554   1.09509   1.16062   1.17269   1.20844
 Alpha virt. eigenvalues --    1.22275   1.24114   1.31122   1.32097   1.33944
 Alpha virt. eigenvalues --    1.38055   1.42323   1.44492   1.49089   1.54319
 Alpha virt. eigenvalues --    1.54347   1.56763   1.61179   1.62193   1.63955
 Alpha virt. eigenvalues --    1.64210   1.64919   1.69810   1.72013   1.75386
 Alpha virt. eigenvalues --    1.79905   1.81884   1.84606   1.88102   1.91746
 Alpha virt. eigenvalues --    1.96344   2.01546   2.04463   2.09419   2.14164
 Alpha virt. eigenvalues --    2.15031   2.17535   2.20659   2.30573   2.32862
 Alpha virt. eigenvalues --    2.41187   2.46438   2.49066   2.50728   2.57049
 Alpha virt. eigenvalues --    2.58643   2.60264   2.61625   2.63842   2.67547
 Alpha virt. eigenvalues --    2.71207   2.75899   2.81002   2.89148   2.94702
 Alpha virt. eigenvalues --    2.99858   3.06682   3.13208   3.15795   3.19306
 Alpha virt. eigenvalues --    3.22626   3.26101   3.32780   3.36916   3.43917
 Alpha virt. eigenvalues --    3.67593   3.81691   3.91643   3.94142   4.02604
 Alpha virt. eigenvalues --    4.03957   4.06592   4.19939   4.33180   5.17122
 Alpha virt. eigenvalues --    5.20494   5.49830   5.51740   5.73035   5.76039
 Alpha virt. eigenvalues --   23.89119  23.93427  23.96723  50.02694  50.04238
          Condensed to atoms (all electrons):
               1          2          3          4          5          6
     1  C    5.472990   0.393444   0.417970   0.012577  -0.030402  -0.064254
     2  H    0.393444   0.662094  -0.103972  -0.019376  -0.043669   0.025755
     3  H    0.417970  -0.103972   0.649608  -0.033588   0.025105  -0.037709
     4  C    0.012577  -0.019376  -0.033588   5.537212   0.383175   0.480579
     5  H   -0.030402  -0.043669   0.025105   0.383175   0.654755  -0.093199
     6  H   -0.064254   0.025755  -0.037709   0.480579  -0.093199   0.569046
     7  C   -0.027273  -0.011244  -0.008368   0.044286   0.009104  -0.081262
     8  H   -0.025469   0.015418  -0.010528   0.056853  -0.051180   0.026647
     9  H   -0.006519  -0.009052   0.011941  -0.046208   0.024809  -0.028920
    10  O    0.186693  -0.065630  -0.063966  -0.126357   0.006955   0.012278
    11  H    0.016811  -0.007510  -0.006253   0.000944   0.001991   0.000497
    12  O    0.030781   0.002143  -0.001956  -0.089639  -0.033163   0.022486
    13  H    0.007568   0.000184  -0.000031  -0.000778   0.013958  -0.007969
               7          8          9         10         11         12
     1  C   -0.027273  -0.025469  -0.006519   0.186693   0.016811   0.030781
     2  H   -0.011244   0.015418  -0.009052  -0.065630  -0.007510   0.002143
     3  H   -0.008368  -0.010528   0.011941  -0.063966  -0.006253  -0.001956
     4  C    0.044286   0.056853  -0.046208  -0.126357   0.000944  -0.089639
     5  H    0.009104  -0.051180   0.024809   0.006955   0.001991  -0.033163
     6  H   -0.081262   0.026647  -0.028920   0.012278   0.000497   0.022486
     7  C    5.512431   0.298082   0.451496   0.024628  -0.002582   0.212829
     8  H    0.298082   0.643240  -0.080815  -0.011369  -0.000642  -0.017637
     9  H    0.451496  -0.080815   0.561865  -0.017264  -0.000543  -0.091203
    10  O    0.024628  -0.011369  -0.017264   8.127183   0.211607  -0.000856
    11  H   -0.002582  -0.000642  -0.000543   0.211607   0.523256   0.000020
    12  O    0.212829  -0.017637  -0.091203  -0.000856   0.000020   7.989862
    13  H   -0.036226  -0.023548   0.019202   0.001049  -0.000081   0.249760
              13
     1  C    0.007568
     2  H    0.000184
     3  H   -0.000031
     4  C   -0.000778
     5  H    0.013958
     6  H   -0.007969
     7  C   -0.036226
     8  H   -0.023548
     9  H    0.019202
    10  O    0.001049
    11  H   -0.000081
    12  O    0.249760
    13  H    0.533625
 Mulliken charges:
               1
     1  C   -0.384917
     2  H    0.161415
     3  H    0.161747
     4  C   -0.199680
     5  H    0.131760
     6  H    0.176026
     7  C   -0.385901
     8  H    0.180946
     9  H    0.211211
    10  O   -0.284951
    11  H    0.262485
    12  O   -0.273427
    13  H    0.243287
 Sum of Mulliken charges =   0.00000
 Mulliken charges with hydrogens summed into heavy atoms:
               1
     1  C   -0.061756
     4  C    0.108106
     7  C    0.006256
    10  O   -0.022466
    12  O   -0.030140
 Electronic spatial extent (au):  <R**2>=            549.0101
 Charge=              0.0000 electrons
 Dipole moment (field-independent basis, Debye):
    X=              2.5698    Y=              1.5887    Z=             -1.1857  Tot=              3.2455
 Quadrupole moment (field-independent basis, Debye-Ang):
   XX=            -29.9928   YY=            -32.7649   ZZ=            -30.8052
   XY=             -1.4132   XZ=              4.1673   YZ=             -0.7212
 Traceless Quadrupole moment (field-independent basis, Debye-Ang):
   XX=              1.1948   YY=             -1.5773   ZZ=              0.3825
   XY=             -1.4132   XZ=              4.1673   YZ=             -0.7212
 Octapole moment (field-independent basis, Debye-Ang**2):
  XXX=             34.0601  YYY=             -3.2283  ZZZ=             -0.9245  XYY=              0.4363
  XXY=              0.3318  XXZ=            -10.6169  XZZ=             -3.3099  YZZ=              0.0335
  YYZ=              0.0392  XYZ=              1.3857
 Hexadecapole moment (field-independent basis, Debye-Ang**3):
 XXXX=           -438.4699 YYYY=           -139.2509 ZZZZ=            -53.3972 XXXY=            -44.0551
 XXXZ=             30.3701 YYYX=             -6.6713 YYYZ=             -0.2188 ZZZX=              3.9576
 ZZZY=             -0.8092 XXYY=           -100.8811 XXZZ=            -84.8199 YYZZ=            -29.9540
 XXYZ=             -4.3797 YYXZ=              0.5334 ZZXY=             -0.5099
 N-N= 1.882027791024D+02 E-N=-1.008140352606D+03  KE= 2.684851264039D+02
 No NMR shielding tensors so no spin-rotation constants.
 Leave Link  601 at Mon Nov 10 19:54:38 2025, MaxMem=    33554432 cpu:         0.0
 (Enter /opt/programs/gaussian/g09/d_pgi133/l9999.exe)
 1\1\GINC-EXADE5\SP\RM062X\6-311++G(d,p)\C3H8O2\APINTO\10-Nov-2025\0\\#
 p M062X/6-311++G(d,p)\\SP\\0,1\C,0,1.470196,-0.189106,-0.104463\H,0,1.
 846358,-1.198452,0.121226\H,0,2.069685,0.193821,-0.94419\C,0,-0.018616
 ,-0.259519,-0.518707\H,0,-0.374404,-1.294688,-0.426871\H,0,-0.131575,0
 .009136,-1.573953\C,0,-0.959453,0.637029,0.298204\H,0,-0.892785,0.3902
 85,1.365504\H,0,-0.673422,1.686248,0.195679\O,0,1.609781,0.663864,1.03
 1397\H,0,2.54781,0.710207,1.252903\O,0,-2.300036,0.547372,-0.177475\H,
 0,-2.605913,-0.354906,-0.016519\\Version=ES64L-G09RevD.01\State=1-A\HF
 =-269.5238433\RMSD=3.082e-09\Dipole=0.9795548,-0.8189712,-0.0150197\Qu
 adrupole=1.5717251,-0.1564821,-1.4152429,3.0236501,-0.8440134,-0.09772
 43\PG=C01 [X(C3H8O2)]\\@


 THE VALUE OF PHILOSOPHY IS, IN FACT, TO BE SOUGHT LARGELY IN ITS
 VERY UNCERTAINTY.  THE MAN WHO HAS NO TINCTURE OF PHILOSOPHY GOES
 THROUGH LIFE IMPRISONED IN THE PREJUDICES DERIVED FROM COMMON SENSE,
 FROM THE HABITUAL BELIEFS OF HIS AGE OR HIS NATION, AND FROM
 CONVICTIONS WHICH HAVE GROWN UP IN HIS MIND WITHOUT THE CO-OPERATION
 OR CONSENT OF HIS DELIBERATE REASON.  TO SUCH A MAN THE WORLD TENDS
 TO BE DEFINITE, FINITE, OBVIOUS; COMMON OBJECTS ROUSE NO QUESTIONS,
 AND UNFAMILIAR POSSIBILITIES ARE CONTEMPTUOUSLY REJECTED.

                             -- BERTRAND RUSSELL
 Job cpu time:       0 days  0 hours  0 minutes 26.3 seconds.
 File lengths (MBytes):  RWF=     16 Int=      0 D2E=      0 Chk=      2 Scr=      1
 Normal termination of Gaussian 09 at Mon Nov 10 19:54:38 2025.
