 Entering Gaussian System, Link 0=g09
 Input=xbz.com
 Output=xbz.log
 Initial command:
 /opt/programs/gaussian/g09/d_pgi133/l1.exe "/scratch/users/apinto/lixo/Gau-1272808.inp" -scrdir="/scratch/users/apinto/lixo/"
 Entering Link 1 = /opt/programs/gaussian/g09/d_pgi133/l1.exe PID=   1272810.
  
 Copyright (c) 1988,1990,1992,1993,1995,1998,2003,2009,2013,
            Gaussian, Inc.  All Rights Reserved.
  
 This is part of the Gaussian(R) 09 program.  It is based on
 the Gaussian(R) 03 system (copyright 2003, Gaussian, Inc.),
 the Gaussian(R) 98 system (copyright 1998, Gaussian, Inc.),
 the Gaussian(R) 94 system (copyright 1995, Gaussian, Inc.),
 the Gaussian 92(TM) system (copyright 1992, Gaussian, Inc.),
 the Gaussian 90(TM) system (copyright 1990, Gaussian, Inc.),
 the Gaussian 88(TM) system (copyright 1988, Gaussian, Inc.),
 the Gaussian 86(TM) system (copyright 1986, Carnegie Mellon
 University), and the Gaussian 82(TM) system (copyright 1983,
 Carnegie Mellon University). Gaussian is a federally registered
 trademark of Gaussian, Inc.
  
 This software contains proprietary and confidential information,
 including trade secrets, belonging to Gaussian, Inc.
  
 This software is provided under written license and may be
 used, copied, transmitted, or stored only in accord with that
 written license.
  
 The following legend is applicable only to US Government
 contracts under FAR:
  
                    RESTRICTED RIGHTS LEGEND
  
 Use, reproduction and disclosure by the US Government is
 subject to restrictions as set forth in subparagraphs (a)
 and (c) of the Commercial Computer Software - Restricted
 Rights clause in FAR 52.227-19.
  
 Gaussian, Inc.
 340 Quinnipiac St., Bldg. 40, Wallingford CT 06492
  
  
 ---------------------------------------------------------------
 Warning -- This program may not be used in any manner that
 competes with the business of Gaussian, Inc. or will provide
 assistance to any competitor of Gaussian, Inc.  The licensee
 of this program is prohibited from giving any competitor of
 Gaussian, Inc. access to this program.  By using this program,
 the user acknowledges that Gaussian, Inc. is engaged in the
 business of creating and licensing software in the field of
 computational chemistry and represents and warrants to the
 licensee that it is not a competitor of Gaussian, Inc. and that
 it will not use this program in any manner prohibited above.
 ---------------------------------------------------------------
  

 Cite this work as:
 Gaussian 09, Revision D.01,
 M. J. Frisch, G. W. Trucks, H. B. Schlegel, G. E. Scuseria, 
 M. A. Robb, J. R. Cheeseman, G. Scalmani, V. Barone, B. Mennucci, 
 G. A. Petersson, H. Nakatsuji, M. Caricato, X. Li, H. P. Hratchian, 
 A. F. Izmaylov, J. Bloino, G. Zheng, J. L. Sonnenberg, M. Hada, 
 M. Ehara, K. Toyota, R. Fukuda, J. Hasegawa, M. Ishida, T. Nakajima, 
 Y. Honda, O. Kitao, H. Nakai, T. Vreven, J. A. Montgomery, Jr., 
 J. E. Peralta, F. Ogliaro, M. Bearpark, J. J. Heyd, E. Brothers, 
 K. N. Kudin, V. N. Staroverov, T. Keith, R. Kobayashi, J. Normand, 
 K. Raghavachari, A. Rendell, J. C. Burant, S. S. Iyengar, J. Tomasi, 
 M. Cossi, N. Rega, J. M. Millam, M. Klene, J. E. Knox, J. B. Cross, 
 V. Bakken, C. Adamo, J. Jaramillo, R. Gomperts, R. E. Stratmann, 
 O. Yazyev, A. J. Austin, R. Cammi, C. Pomelli, J. W. Ochterski, 
 R. L. Martin, K. Morokuma, V. G. Zakrzewski, G. A. Voth, 
 P. Salvador, J. J. Dannenberg, S. Dapprich, A. D. Daniels, 
 O. Farkas, J. B. Foresman, J. V. Ortiz, J. Cioslowski, 
 and D. J. Fox, Gaussian, Inc., Wallingford CT, 2013.
 
 ******************************************
 Gaussian 09:  ES64L-G09RevD.01 24-Apr-2013
                10-Nov-2025 
 ******************************************
 ----------------------
 #p M062X/6-311++G(d,p)
 ----------------------
 1/38=1/1;
 2/12=2,17=6,18=5,40=1/2;
 3/5=4,6=6,7=1111,11=2,16=1,25=1,30=1,74=-55/1,2,3;
 4//1;
 5/5=2,38=5/2;
 6/7=2,8=2,9=2,10=2,28=1/1;
 99/5=1,9=1/99;
 Leave Link    1 at Mon Nov 10 19:54:38 2025, MaxMem=           0 cpu:         0.0
 (Enter /opt/programs/gaussian/g09/d_pgi133/l101.exe)
 --
 SP
 --
 Symbolic Z-matrix:
 Charge =  0 Multiplicity = 1
 C                     1.47105  -0.17946  -0.11108 
 H                     1.88344  -1.18878   0.03717 
 H                     2.04469   0.28233  -0.92943 
 C                    -0.01887  -0.26915  -0.51194 
 H                    -0.37283  -1.30005  -0.37298 
 H                    -0.13678  -0.04706  -1.5773 
 C                    -0.95725   0.6528    0.27871 
 H                    -0.8813    0.44256   1.35254 
 H                    -0.67751   1.7       0.13814 
 O                     1.59926   0.6018    1.07635 
 H                     2.53784   0.65816   1.29325 
 O                    -2.30091   0.54216  -0.1842 
 H                    -2.60322  -0.35402   0.01349 
 
 NAtoms=     13 NQM=       13 NQMF=       0 NMMI=      0 NMMIF=      0
                NMic=       0 NMicF=      0.
                    Isotopes and Nuclear Properties:
 (Nuclear quadrupole moments (NQMom) in fm**2, nuclear magnetic moments (NMagM)
  in nuclear magnetons)

  Atom         1           2           3           4           5           6           7           8           9          10
 IAtWgt=          12           1           1          12           1           1          12           1           1          16
 AtmWgt=  12.0000000   1.0078250   1.0078250  12.0000000   1.0078250   1.0078250  12.0000000   1.0078250   1.0078250  15.9949146
 NucSpn=           0           1           1           0           1           1           0           1           1           0
 AtZEff=   0.0000000   0.0000000   0.0000000   0.0000000   0.0000000   0.0000000   0.0000000   0.0000000   0.0000000   0.0000000
 NQMom=    0.0000000   0.0000000   0.0000000   0.0000000   0.0000000   0.0000000   0.0000000   0.0000000   0.0000000   0.0000000
 NMagM=    0.0000000   2.7928460   2.7928460   0.0000000   2.7928460   2.7928460   0.0000000   2.7928460   2.7928460   0.0000000
 AtZNuc=   6.0000000   1.0000000   1.0000000   6.0000000   1.0000000   1.0000000   6.0000000   1.0000000   1.0000000   8.0000000

  Atom        11          12          13
 IAtWgt=           1          16           1
 AtmWgt=   1.0078250  15.9949146   1.0078250
 NucSpn=           1           0           1
 AtZEff=   0.0000000   0.0000000   0.0000000
 NQMom=    0.0000000   0.0000000   0.0000000
 NMagM=    2.7928460   0.0000000   2.7928460
 AtZNuc=   1.0000000   8.0000000   1.0000000
 Leave Link  101 at Mon Nov 10 19:54:38 2025, MaxMem=    33554432 cpu:         0.0
 (Enter /opt/programs/gaussian/g09/d_pgi133/l202.exe)
                          Input orientation:                          
 ---------------------------------------------------------------------
 Center     Atomic      Atomic             Coordinates (Angstroms)
 Number     Number       Type             X           Y           Z
 ---------------------------------------------------------------------
      1          6           0        1.471049   -0.179457   -0.111075
      2          1           0        1.883444   -1.188785    0.037171
      3          1           0        2.044695    0.282334   -0.929431
      4          6           0       -0.018865   -0.269150   -0.511942
      5          1           0       -0.372832   -1.300051   -0.372976
      6          1           0       -0.136779   -0.047059   -1.577302
      7          6           0       -0.957254    0.652802    0.278712
      8          1           0       -0.881295    0.442561    1.352541
      9          1           0       -0.677514    1.700004    0.138143
     10          8           0        1.599262    0.601798    1.076354
     11          1           0        2.537839    0.658160    1.293246
     12          8           0       -2.300907    0.542157   -0.184199
     13          1           0       -2.603219   -0.354022    0.013494
 ---------------------------------------------------------------------
                    Distance matrix (angstroms):
                    1          2          3          4          5
     1  C    0.000000
     2  H    1.100359   0.000000
     3  H    1.100921   1.767629   0.000000
     4  C    1.545504   2.183125   2.176399   0.000000
     5  H    2.173527   2.295949   2.942452   1.098800   0.000000
     6  H    2.180014   2.826900   2.299362   1.094632   1.753885
     7  C    2.596391   3.394017   3.257078   1.534830   2.140066
     8  H    2.839472   3.469189   3.714093   2.174078   2.504524
     9  H    2.865450   3.861839   3.249604   2.175775   3.058497
    10  O    1.427160   2.089701   2.079337   2.428903   3.099474
    11  H    1.952373   2.327480   2.307537   3.264252   3.883670
    12  O    3.841058   4.533647   4.416688   2.444044   2.673357
    13  H    4.079908   4.563719   4.785098   2.638593   2.453356
                    6          7          8          9         10
     6  H    0.000000
     7  C    2.146572   0.000000
     8  H    3.062354   1.096850   0.000000
     9  H    2.507464   1.092999   1.759958   0.000000
    10  O    3.236780   2.678546   2.500960   2.696295   0.000000
    11  H    3.986347   3.639366   3.426438   3.571862   0.964959
    12  O    2.640334   1.425459   2.094466   2.019881   4.099252
    13  H    2.950963   1.947623   2.322200   2.818315   4.438931
                   11         12         13
    11  H    0.000000
    12  O    5.060609   0.000000
    13  H    5.393770   0.966236   0.000000
 Stoichiometry    C3H8O2
 Framework group  C1[X(C3H8O2)]
 Deg. of freedom    33
 Full point group                 C1      NOp   1
 Largest Abelian subgroup         C1      NOp   1
 Largest concise Abelian subgroup C1      NOp   1
                         Standard orientation:                         
 ---------------------------------------------------------------------
 Center     Atomic      Atomic             Coordinates (Angstroms)
 Number     Number       Type             X           Y           Z
 ---------------------------------------------------------------------
      1          6           0        1.458463    0.578107    0.040903
      2          1           0        1.955309    1.139001   -0.764908
      3          1           0        1.858486    0.963696    0.991340
      4          6           0       -0.067783    0.815768   -0.010817
      5          1           0       -0.325339    1.331948   -0.946009
      6          1           0       -0.373091    1.484037    0.800616
      7          6           0       -0.922718   -0.456587    0.066000
      8          1           0       -0.658099   -1.142464   -0.748021
      9          1           0       -0.739560   -0.988210    1.003271
     10          8           0        1.727662   -0.818955   -0.071054
     11          1           0        2.683296   -0.941184   -0.016555
     12          8           0       -2.313787   -0.145442    0.059094
     13          1           0       -2.519773    0.244628   -0.800573
 ---------------------------------------------------------------------
 Rotational constants (GHZ):     12.4674604      2.5664443      2.2323853
 Leave Link  202 at Mon Nov 10 19:54:38 2025, MaxMem=    33554432 cpu:         0.0
 (Enter /opt/programs/gaussian/g09/d_pgi133/l301.exe)
 Standard basis: 6-311++G(d,p) (5D, 7F)
 Ernie: Thresh=  0.10000D-02 Tol=  0.10000D-05 Strict=F.
 There are   171 symmetry adapted cartesian basis functions of A   symmetry.
 There are   166 symmetry adapted basis functions of A   symmetry.
   166 basis functions,   252 primitive gaussians,   171 cartesian basis functions
    21 alpha electrons       21 beta electrons
       nuclear repulsion energy       188.2021487863 Hartrees.
 IExCor= 4336 DFT=T Ex+Corr=M062X ExCW=0 ScaHFX=  0.540000
 ScaDFX=  1.000000  1.000000  1.000000  1.000000 ScalE2=  1.000000  1.000000
 IRadAn=      0 IRanWt=     -1 IRanGd=            0 ICorTp=0 IEmpDi=  4
 NAtoms=   13 NActive=   13 NUniq=   13 SFac= 1.00D+00 NAtFMM=   60 NAOKFM=F Big=F
 Integral buffers will be    131072 words long.
 Raffenetti 2 integral format.
 Two-electron integral symmetry is turned on.
 Leave Link  301 at Mon Nov 10 19:54:38 2025, MaxMem=    33554432 cpu:         0.0
 (Enter /opt/programs/gaussian/g09/d_pgi133/l302.exe)
 NPDir=0 NMtPBC=     1 NCelOv=     1 NCel=       1 NClECP=     1 NCelD=      1
         NCelK=      1 NCelE2=     1 NClLst=     1 CellRange=     0.0.
 One-electron integrals computed using PRISM.
 NBasis=   166 RedAO= T EigKep=  4.05D-05  NBF=   166
 NBsUse=   166 1.00D-06 EigRej= -1.00D+00 NBFU=   166
 Precomputing XC quadrature grid using
 IXCGrd= 4 IRadAn=           0 IRanWt=          -1 IRanGd=           0 AccXCQ= 0.00D+00.
 Generated NRdTot=       0 NPtTot=           0 NUsed=           0 NTot=          32
 NSgBfM=   171   171   171   171   171 MxSgAt=    13 MxSgA2=    13.
 Leave Link  302 at Mon Nov 10 19:54:38 2025, MaxMem=    33554432 cpu:         0.1
 (Enter /opt/programs/gaussian/g09/d_pgi133/l303.exe)
 DipDrv:  MaxL=1.
 Leave Link  303 at Mon Nov 10 19:54:38 2025, MaxMem=    33554432 cpu:         0.0
 (Enter /opt/programs/gaussian/g09/d_pgi133/l401.exe)
 ExpMin= 3.60D-02 ExpMax= 8.59D+03 ExpMxC= 1.30D+03 IAcc=3 IRadAn=         5 AccDes= 0.00D+00
 Harris functional with IExCor= 1009 and IRadAn=       5 diagonalized for initial guess.
 HarFok:  IExCor= 1009 AccDes= 0.00D+00 IRadAn=         5 IDoV= 1 UseB2=F ITyADJ=14
 ICtDFT=  3500011 ScaDFX=  1.000000  1.000000  1.000000  1.000000
 FoFCou: FMM=F IPFlag=           0 FMFlag=      100000 FMFlg1=           0
         NFxFlg=           0 DoJE=T BraDBF=F KetDBF=T FulRan=T
         wScrn=  0.000000 ICntrl=     500 IOpCl=  0 I1Cent=   200000004 NGrid=           0
         NMat0=    1 NMatS0=      1 NMatT0=    0 NMatD0=    1 NMtDS0=    0 NMtDT0=    0
 Petite list used in FoFCou.
 Harris En= -269.437288827224    
 JPrj=0 DoOrth=F DoCkMO=F.
 Leave Link  401 at Mon Nov 10 19:54:39 2025, MaxMem=    33554432 cpu:         1.5
 (Enter /opt/programs/gaussian/g09/d_pgi133/l502.exe)
 Closed shell SCF:
 Using DIIS extrapolation, IDIIS=  1040.
 Integral symmetry usage will be decided dynamically.
 IVT=      108587 IEndB=      108587 NGot=    33554432 MDV=    33491898
 LenX=    33491898 LenY=    33462216
 Requested convergence on RMS density matrix=1.00D-08 within 128 cycles.
 Requested convergence on MAX density matrix=1.00D-06.
 Requested convergence on             energy=1.00D-06.
 No special actions if energy rises.
 Fock matrices will be formed incrementally for  20 cycles.

 Cycle   1  Pass 1  IDiag  1:
 FoFJK:  IHMeth= 1 ICntrl=       0 DoSepK=F KAlg= 0 I1Cent=   0 FoldK=F
 IRaf= 980000000 NMat=   1 IRICut=       1 DoRegI=T DoRafI=F ISym2E= 0.
 FoFCou: FMM=F IPFlag=           0 FMFlag=      100000 FMFlg1=           0
         NFxFlg=           0 DoJE=F BraDBF=F KetDBF=F FulRan=T
         wScrn=  0.000000 ICntrl=       0 IOpCl=  0 I1Cent=           0 NGrid=           0
         NMat0=    1 NMatS0=      1 NMatT0=    0 NMatD0=    1 NMtDS0=    0 NMtDT0=    0
 Symmetry not used in FoFCou.
 E= -269.357477583462    
 DIIS: error= 2.85D-02 at cycle   1 NSaved=   1.
 NSaved= 1 IEnMin= 1 EnMin= -269.357477583462     IErMin= 1 ErrMin= 2.85D-02
 ErrMax= 2.85D-02  0.00D+00 EMaxC= 1.00D-01 BMatC= 2.33D-01 BMatP= 2.33D-01
 IDIUse=3 WtCom= 7.15D-01 WtEn= 2.85D-01
 Coeff-Com:  0.100D+01
 Coeff-En:   0.100D+01
 Coeff:      0.100D+01
 Gap=     0.302 Goal=   None    Shift=    0.000
 GapD=    0.302 DampG=1.000 DampE=0.500 DampFc=0.5000 IDamp=-1.
 Damping current iteration by 5.00D-01
 RMSDP=6.36D-03 MaxDP=1.41D-01              OVMax= 1.36D-01

 Cycle   2  Pass 1  IDiag  1:
 RMSU=  3.17D-03    CP:  9.78D-01
 E= -269.437640799497     Delta-E=       -0.080163216035 Rises=F Damp=T
 DIIS: error= 6.97D-03 at cycle   2 NSaved=   2.
 NSaved= 2 IEnMin= 2 EnMin= -269.437640799497     IErMin= 2 ErrMin= 6.97D-03
 ErrMax= 6.97D-03  0.00D+00 EMaxC= 1.00D-01 BMatC= 1.53D-02 BMatP= 2.33D-01
 IDIUse=3 WtCom= 9.30D-01 WtEn= 6.97D-02
 Coeff-Com: -0.376D-01 0.104D+01
 Coeff-En:   0.000D+00 0.100D+01
 Coeff:     -0.350D-01 0.103D+01
 Gap=     0.341 Goal=   None    Shift=    0.000
 RMSDP=1.91D-03 MaxDP=8.05D-02 DE=-8.02D-02 OVMax= 7.07D-02

 Cycle   3  Pass 1  IDiag  1:
 RMSU=  1.85D-03    CP:  9.54D-01  9.09D-01
 E= -269.521511340258     Delta-E=       -0.083870540761 Rises=F Damp=F
 DIIS: error= 5.09D-03 at cycle   3 NSaved=   3.
 NSaved= 3 IEnMin= 3 EnMin= -269.521511340258     IErMin= 3 ErrMin= 5.09D-03
 ErrMax= 5.09D-03  0.00D+00 EMaxC= 1.00D-01 BMatC= 3.98D-03 BMatP= 1.53D-02
 IDIUse=3 WtCom= 9.49D-01 WtEn= 5.09D-02
 Coeff-Com: -0.784D-01 0.315D+00 0.763D+00
 Coeff-En:   0.000D+00 0.000D+00 0.100D+01
 Coeff:     -0.744D-01 0.299D+00 0.775D+00
 Gap=     0.335 Goal=   None    Shift=    0.000
 RMSDP=3.53D-04 MaxDP=8.75D-03 DE=-8.39D-02 OVMax= 1.28D-02

 Cycle   4  Pass 1  IDiag  1:
 RMSU=  3.06D-04    CP:  9.54D-01  9.63D-01  9.82D-01
 E= -269.523646570571     Delta-E=       -0.002135230313 Rises=F Damp=F
 DIIS: error= 1.67D-03 at cycle   4 NSaved=   4.
 NSaved= 4 IEnMin= 4 EnMin= -269.523646570571     IErMin= 4 ErrMin= 1.67D-03
 ErrMax= 1.67D-03  0.00D+00 EMaxC= 1.00D-01 BMatC= 7.23D-04 BMatP= 3.98D-03
 IDIUse=3 WtCom= 9.83D-01 WtEn= 1.67D-02
 Coeff-Com: -0.318D-01 0.857D-01 0.372D+00 0.574D+00
 Coeff-En:   0.000D+00 0.000D+00 0.972D-01 0.903D+00
 Coeff:     -0.313D-01 0.843D-01 0.368D+00 0.579D+00
 Gap=     0.333 Goal=   None    Shift=    0.000
 RMSDP=1.56D-04 MaxDP=3.48D-03 DE=-2.14D-03 OVMax= 4.63D-03

 Cycle   5  Pass 1  IDiag  1:
 RMSU=  1.03D-04    CP:  9.52D-01  9.49D-01  9.89D-01  6.62D-01
 E= -269.524225888085     Delta-E=       -0.000579317514 Rises=F Damp=F
 DIIS: error= 2.07D-04 at cycle   5 NSaved=   5.
 NSaved= 5 IEnMin= 5 EnMin= -269.524225888085     IErMin= 5 ErrMin= 2.07D-04
 ErrMax= 2.07D-04  0.00D+00 EMaxC= 1.00D-01 BMatC= 1.04D-05 BMatP= 7.23D-04
 IDIUse=3 WtCom= 9.98D-01 WtEn= 2.07D-03
 Coeff-Com: -0.396D-02 0.581D-02 0.545D-01 0.155D+00 0.788D+00
 Coeff-En:   0.000D+00 0.000D+00 0.000D+00 0.000D+00 0.100D+01
 Coeff:     -0.396D-02 0.580D-02 0.544D-01 0.155D+00 0.789D+00
 Gap=     0.333 Goal=   None    Shift=    0.000
 RMSDP=3.19D-05 MaxDP=1.05D-03 DE=-5.79D-04 OVMax= 5.87D-04

 Cycle   6  Pass 1  IDiag  1:
 RMSU=  2.27D-05    CP:  9.52D-01  9.46D-01  9.94D-01  7.08D-01  9.07D-01
 E= -269.524234487894     Delta-E=       -0.000008599809 Rises=F Damp=F
 DIIS: error= 2.36D-05 at cycle   6 NSaved=   6.
 NSaved= 6 IEnMin= 6 EnMin= -269.524234487894     IErMin= 6 ErrMin= 2.36D-05
 ErrMax= 2.36D-05  0.00D+00 EMaxC= 1.00D-01 BMatC= 1.20D-07 BMatP= 1.04D-05
 IDIUse=1 WtCom= 1.00D+00 WtEn= 0.00D+00
 Coeff-Com:  0.841D-03-0.218D-02-0.816D-02-0.879D-02 0.246D-01 0.994D+00
 Coeff:      0.841D-03-0.218D-02-0.816D-02-0.879D-02 0.246D-01 0.994D+00
 Gap=     0.333 Goal=   None    Shift=    0.000
 RMSDP=9.59D-06 MaxDP=3.79D-04 DE=-8.60D-06 OVMax= 1.46D-04

 Cycle   7  Pass 1  IDiag  1:
 RMSU=  4.44D-06    CP:  9.52D-01  9.44D-01  9.95D-01  7.12D-01  9.40D-01
                    CP:  1.11D+00
 E= -269.524234644960     Delta-E=       -0.000000157065 Rises=F Damp=F
 DIIS: error= 7.54D-06 at cycle   7 NSaved=   7.
 NSaved= 7 IEnMin= 7 EnMin= -269.524234644960     IErMin= 7 ErrMin= 7.54D-06
 ErrMax= 7.54D-06  0.00D+00 EMaxC= 1.00D-01 BMatC= 2.36D-08 BMatP= 1.20D-07
 IDIUse=1 WtCom= 1.00D+00 WtEn= 0.00D+00
 Coeff-Com:  0.492D-03-0.104D-02-0.562D-02-0.108D-01-0.321D-01 0.318D+00
 Coeff-Com:  0.731D+00
 Coeff:      0.492D-03-0.104D-02-0.562D-02-0.108D-01-0.321D-01 0.318D+00
 Coeff:      0.731D+00
 Gap=     0.333 Goal=   None    Shift=    0.000
 RMSDP=1.50D-06 MaxDP=4.17D-05 DE=-1.57D-07 OVMax= 3.59D-05

 Cycle   8  Pass 1  IDiag  1:
 RMSU=  7.93D-07    CP:  9.52D-01  9.43D-01  9.95D-01  7.13D-01  9.43D-01
                    CP:  1.15D+00  9.09D-01
 E= -269.524234665761     Delta-E=       -0.000000020802 Rises=F Damp=F
 DIIS: error= 3.68D-06 at cycle   8 NSaved=   8.
 NSaved= 8 IEnMin= 8 EnMin= -269.524234665761     IErMin= 8 ErrMin= 3.68D-06
 ErrMax= 3.68D-06  0.00D+00 EMaxC= 1.00D-01 BMatC= 2.93D-09 BMatP= 2.36D-08
 IDIUse=1 WtCom= 1.00D+00 WtEn= 0.00D+00
 Coeff-Com:  0.115D-03-0.222D-03-0.150D-02-0.335D-02-0.142D-01 0.464D-01
 Coeff-Com:  0.290D+00 0.683D+00
 Coeff:      0.115D-03-0.222D-03-0.150D-02-0.335D-02-0.142D-01 0.464D-01
 Coeff:      0.290D+00 0.683D+00
 Gap=     0.333 Goal=   None    Shift=    0.000
 RMSDP=5.42D-07 MaxDP=2.24D-05 DE=-2.08D-08 OVMax= 1.59D-05

 Cycle   9  Pass 1  IDiag  1:
 RMSU=  2.96D-07    CP:  9.52D-01  9.43D-01  9.95D-01  7.13D-01  9.44D-01
                    CP:  1.16D+00  9.74D-01  8.83D-01
 E= -269.524234668174     Delta-E=       -0.000000002412 Rises=F Damp=F
 DIIS: error= 8.77D-07 at cycle   9 NSaved=   9.
 NSaved= 9 IEnMin= 9 EnMin= -269.524234668174     IErMin= 9 ErrMin= 8.77D-07
 ErrMax= 8.77D-07  0.00D+00 EMaxC= 1.00D-01 BMatC= 1.97D-10 BMatP= 2.93D-09
 IDIUse=1 WtCom= 1.00D+00 WtEn= 0.00D+00
 Coeff-Com: -0.361D-05 0.114D-04-0.600D-04-0.243D-03-0.220D-02-0.987D-02
 Coeff-Com:  0.392D-01 0.229D+00 0.744D+00
 Coeff:     -0.361D-05 0.114D-04-0.600D-04-0.243D-03-0.220D-02-0.987D-02
 Coeff:      0.392D-01 0.229D+00 0.744D+00
 Gap=     0.333 Goal=   None    Shift=    0.000
 RMSDP=1.14D-07 MaxDP=2.94D-06 DE=-2.41D-09 OVMax= 3.73D-06

 Cycle  10  Pass 1  IDiag  1:
 RMSU=  8.60D-08    CP:  9.52D-01  9.43D-01  9.95D-01  7.13D-01  9.44D-01
                    CP:  1.16D+00  9.83D-01  9.43D-01  1.02D+00
 E= -269.524234668313     Delta-E=       -0.000000000140 Rises=F Damp=F
 DIIS: error= 3.22D-07 at cycle  10 NSaved=  10.
 NSaved=10 IEnMin=10 EnMin= -269.524234668313     IErMin=10 ErrMin= 3.22D-07
 ErrMax= 3.22D-07  0.00D+00 EMaxC= 1.00D-01 BMatC= 3.64D-11 BMatP= 1.97D-10
 IDIUse=1 WtCom= 1.00D+00 WtEn= 0.00D+00
 Coeff-Com: -0.141D-04 0.291D-04 0.138D-03 0.267D-03 0.641D-03-0.925D-02
 Coeff-Com: -0.195D-01 0.135D-01 0.339D+00 0.675D+00
 Coeff:     -0.141D-04 0.291D-04 0.138D-03 0.267D-03 0.641D-03-0.925D-02
 Coeff:     -0.195D-01 0.135D-01 0.339D+00 0.675D+00
 Gap=     0.333 Goal=   None    Shift=    0.000
 RMSDP=4.89D-08 MaxDP=1.41D-06 DE=-1.40D-10 OVMax= 1.74D-06

 Cycle  11  Pass 1  IDiag  1:
 RMSU=  2.45D-08    CP:  9.52D-01  9.43D-01  9.95D-01  7.13D-01  9.44D-01
                    CP:  1.16D+00  9.90D-01  9.55D-01  1.09D+00  8.58D-01
 E= -269.524234668352     Delta-E=       -0.000000000039 Rises=F Damp=F
 DIIS: error= 3.98D-08 at cycle  11 NSaved=  11.
 NSaved=11 IEnMin=11 EnMin= -269.524234668352     IErMin=11 ErrMin= 3.98D-08
 ErrMax= 3.98D-08  0.00D+00 EMaxC= 1.00D-01 BMatC= 4.45D-13 BMatP= 3.64D-11
 IDIUse=1 WtCom= 1.00D+00 WtEn= 0.00D+00
 Coeff-Com: -0.113D-06 0.527D-06 0.974D-05 0.171D-04 0.106D-03 0.109D-03
 Coeff-Com: -0.300D-02-0.107D-01-0.219D-01 0.401D-01 0.995D+00
 Coeff:     -0.113D-06 0.527D-06 0.974D-05 0.171D-04 0.106D-03 0.109D-03
 Coeff:     -0.300D-02-0.107D-01-0.219D-01 0.401D-01 0.995D+00
 Gap=     0.333 Goal=   None    Shift=    0.000
 RMSDP=1.19D-08 MaxDP=3.01D-07 DE=-3.90D-11 OVMax= 6.09D-07

 Cycle  12  Pass 1  IDiag  1:
 RMSU=  7.51D-09    CP:  9.52D-01  9.43D-01  9.95D-01  7.13D-01  9.44D-01
                    CP:  1.16D+00  9.91D-01  9.58D-01  1.11D+00  9.16D-01
                    CP:  1.13D+00
 E= -269.524234668344     Delta-E=        0.000000000008 Rises=F Damp=F
 DIIS: error= 1.07D-08 at cycle  12 NSaved=  12.
 NSaved=12 IEnMin=11 EnMin= -269.524234668352     IErMin=12 ErrMin= 1.07D-08
 ErrMax= 1.07D-08  0.00D+00 EMaxC= 1.00D-01 BMatC= 3.29D-14 BMatP= 4.45D-13
 IDIUse=1 WtCom= 1.00D+00 WtEn= 0.00D+00
 Coeff-Com:  0.817D-06-0.160D-05-0.584D-05-0.125D-04-0.226D-04 0.526D-03
 Coeff-Com:  0.680D-03-0.250D-02-0.225D-01-0.345D-01 0.134D+00 0.924D+00
 Coeff:      0.817D-06-0.160D-05-0.584D-05-0.125D-04-0.226D-04 0.526D-03
 Coeff:      0.680D-03-0.250D-02-0.225D-01-0.345D-01 0.134D+00 0.924D+00
 Gap=     0.333 Goal=   None    Shift=    0.000
 RMSDP=3.35D-09 MaxDP=1.15D-07 DE= 7.84D-12 OVMax= 1.68D-07

 SCF Done:  E(RM062X) =  -269.524234668     A.U. after   12 cycles
            NFock= 12  Conv=0.34D-08     -V/T= 2.0039
 KE= 2.684855565351D+02 PE=-1.008136325440D+03 EE= 2.819243854499D+02
 Leave Link  502 at Mon Nov 10 19:55:04 2025, MaxMem=    33554432 cpu:        25.0
 (Enter /opt/programs/gaussian/g09/d_pgi133/l601.exe)
 Copying SCF densities to generalized density rwf, IOpCl= 0 IROHF=0.

 **********************************************************************

            Population analysis using the SCF density.

 **********************************************************************

 Orbital symmetries:
       Occupied  (A) (A) (A) (A) (A) (A) (A) (A) (A) (A) (A) (A)
                 (A) (A) (A) (A) (A) (A) (A) (A) (A)
       Virtual   (A) (A) (A) (A) (A) (A) (A) (A) (A) (A) (A) (A)
                 (A) (A) (A) (A) (A) (A) (A) (A) (A) (A) (A) (A)
                 (A) (A) (A) (A) (A) (A) (A) (A) (A) (A) (A) (A)
                 (A) (A) (A) (A) (A) (A) (A) (A) (A) (A) (A) (A)
                 (A) (A) (A) (A) (A) (A) (A) (A) (A) (A) (A) (A)
                 (A) (A) (A) (A) (A) (A) (A) (A) (A) (A) (A) (A)
                 (A) (A) (A) (A) (A) (A) (A) (A) (A) (A) (A) (A)
                 (A) (A) (A) (A) (A) (A) (A) (A) (A) (A) (A) (A)
                 (A) (A) (A) (A) (A) (A) (A) (A) (A) (A) (A) (A)
                 (A) (A) (A) (A) (A) (A) (A) (A) (A) (A) (A) (A)
                 (A) (A) (A) (A) (A) (A) (A) (A) (A) (A) (A) (A)
                 (A) (A) (A) (A) (A) (A) (A) (A) (A) (A) (A) (A)
                 (A)
 The electronic state is 1-A.
 Alpha  occ. eigenvalues --  -19.62974 -19.61642 -10.59422 -10.57641 -10.53788
 Alpha  occ. eigenvalues --   -1.15138  -1.13701  -0.86963  -0.76348  -0.68027
 Alpha  occ. eigenvalues --   -0.60853  -0.57044  -0.54734  -0.51208  -0.48869
 Alpha  occ. eigenvalues --   -0.44802  -0.44074  -0.41695  -0.39203  -0.35018
 Alpha  occ. eigenvalues --   -0.34156
 Alpha virt. eigenvalues --   -0.00860   0.00433   0.01551   0.02035   0.03803
 Alpha virt. eigenvalues --    0.04411   0.05309   0.05773   0.07470   0.09469
 Alpha virt. eigenvalues --    0.10323   0.11574   0.12181   0.12607   0.13357
 Alpha virt. eigenvalues --    0.13558   0.14643   0.15165   0.16138   0.16846
 Alpha virt. eigenvalues --    0.18464   0.20058   0.22188   0.22835   0.23417
 Alpha virt. eigenvalues --    0.24652   0.25673   0.26604   0.27608   0.29800
 Alpha virt. eigenvalues --    0.30157   0.31191   0.31857   0.33494   0.34112
 Alpha virt. eigenvalues --    0.34893   0.36019   0.40128   0.41030   0.44063
 Alpha virt. eigenvalues --    0.47321   0.48245   0.50953   0.51974   0.57928
 Alpha virt. eigenvalues --    0.59951   0.62020   0.62840   0.67704   0.68448
 Alpha virt. eigenvalues --    0.68741   0.71357   0.72554   0.72714   0.74286
 Alpha virt. eigenvalues --    0.78444   0.79039   0.91972   0.96011   0.99753
 Alpha virt. eigenvalues --    1.05014   1.09142   1.15567   1.16700   1.20530
 Alpha virt. eigenvalues --    1.22148   1.24290   1.29562   1.31693   1.34261
 Alpha virt. eigenvalues --    1.38020   1.43361   1.44775   1.48961   1.54079
 Alpha virt. eigenvalues --    1.54517   1.57124   1.60910   1.62162   1.63801
 Alpha virt. eigenvalues --    1.64394   1.65312   1.69572   1.71702   1.75300
 Alpha virt. eigenvalues --    1.79988   1.81975   1.84394   1.87487   1.91617
 Alpha virt. eigenvalues --    1.96445   2.01712   2.04288   2.09682   2.13377
 Alpha virt. eigenvalues --    2.14551   2.17952   2.20549   2.30455   2.32922
 Alpha virt. eigenvalues --    2.40579   2.46013   2.49694   2.51149   2.56682
 Alpha virt. eigenvalues --    2.58986   2.59698   2.61723   2.64075   2.67717
 Alpha virt. eigenvalues --    2.70988   2.75916   2.81521   2.88950   2.94014
 Alpha virt. eigenvalues --    2.99068   3.05581   3.12803   3.16281   3.19044
 Alpha virt. eigenvalues --    3.22611   3.26078   3.32884   3.36901   3.43689
 Alpha virt. eigenvalues --    3.68129   3.81665   3.91794   3.94069   4.01381
 Alpha virt. eigenvalues --    4.04396   4.06536   4.19548   4.33191   5.17099
 Alpha virt. eigenvalues --    5.20483   5.49795   5.51675   5.72995   5.75801
 Alpha virt. eigenvalues --   23.89134  23.93365  23.96823  50.02407  50.04159
          Condensed to atoms (all electrons):
               1          2          3          4          5          6
     1  C    5.469232   0.382794   0.424987   0.020385  -0.029913  -0.065356
     2  H    0.382794   0.664469  -0.102947  -0.004285  -0.044847   0.025129
     3  H    0.424987  -0.102947   0.648434  -0.046693   0.024478  -0.035433
     4  C    0.020385  -0.004285  -0.046693   5.524330   0.387485   0.478705
     5  H   -0.029913  -0.044847   0.024478   0.387485   0.649750  -0.090149
     6  H   -0.065356   0.025129  -0.035433   0.478705  -0.090149   0.567330
     7  C   -0.024096  -0.016165  -0.002407   0.041349   0.009605  -0.085892
     8  H   -0.030551   0.015320  -0.010521   0.061664  -0.050685   0.026379
     9  H   -0.001784  -0.008258   0.010161  -0.049546   0.023223  -0.026217
    10  O    0.179775  -0.062702  -0.066046  -0.115681   0.002566   0.015454
    11  H    0.017649  -0.010078  -0.004082  -0.000112   0.002630  -0.000150
    12  O    0.029565   0.002145  -0.001841  -0.089950  -0.032610   0.022275
    13  H    0.008109   0.000030  -0.000007   0.001827   0.013653  -0.008009
               7          8          9         10         11         12
     1  C   -0.024096  -0.030551  -0.001784   0.179775   0.017649   0.029565
     2  H   -0.016165   0.015320  -0.008258  -0.062702  -0.010078   0.002145
     3  H   -0.002407  -0.010521   0.010161  -0.066046  -0.004082  -0.001841
     4  C    0.041349   0.061664  -0.049546  -0.115681  -0.000112  -0.089950
     5  H    0.009605  -0.050685   0.023223   0.002566   0.002630  -0.032610
     6  H   -0.085892   0.026379  -0.026217   0.015454  -0.000150   0.022275
     7  C    5.521349   0.293272   0.452364   0.018567  -0.003198   0.215415
     8  H    0.293272   0.641290  -0.079131  -0.005298  -0.000464  -0.018473
     9  H    0.452364  -0.079131   0.561271  -0.020378  -0.000352  -0.090561
    10  O    0.018567  -0.005298  -0.020378   8.127010   0.211934  -0.000524
    11  H   -0.003198  -0.000464  -0.000352   0.211934   0.523264   0.000019
    12  O    0.215415  -0.018473  -0.090561  -0.000524   0.000019   7.986974
    13  H   -0.039920  -0.023437   0.019305   0.000983  -0.000100   0.249997
              13
     1  C    0.008109
     2  H    0.000030
     3  H   -0.000007
     4  C    0.001827
     5  H    0.013653
     6  H   -0.008009
     7  C   -0.039920
     8  H   -0.023437
     9  H    0.019305
    10  O    0.000983
    11  H   -0.000100
    12  O    0.249997
    13  H    0.534599
 Mulliken charges:
               1
     1  C   -0.380795
     2  H    0.159395
     3  H    0.161915
     4  C   -0.209478
     5  H    0.134816
     6  H    0.175935
     7  C   -0.380243
     8  H    0.180634
     9  H    0.209903
    10  O   -0.285659
    11  H    0.263040
    12  O   -0.272432
    13  H    0.242969
 Sum of Mulliken charges =   0.00000
 Mulliken charges with hydrogens summed into heavy atoms:
               1
     1  C   -0.059485
     4  C    0.101273
     7  C    0.010293
    10  O   -0.022619
    12  O   -0.029463
 Electronic spatial extent (au):  <R**2>=            549.1770
 Charge=              0.0000 electrons
 Dipole moment (field-independent basis, Debye):
    X=              2.5940    Y=              1.5008    Z=             -1.0998  Tot=              3.1923
 Quadrupole moment (field-independent basis, Debye-Ang):
   XX=            -30.1724   YY=            -32.8147   ZZ=            -30.6641
   XY=             -1.1514   XZ=              4.3416   YZ=             -0.7240
 Traceless Quadrupole moment (field-independent basis, Debye-Ang):
   XX=              1.0446   YY=             -1.5976   ZZ=              0.5530
   XY=             -1.1514   XZ=              4.3416   YZ=             -0.7240
 Octapole moment (field-independent basis, Debye-Ang**2):
  XXX=             34.7694  YYY=             -3.1945  ZZZ=             -1.0192  XYY=              0.6381
  XXY=             -0.4035  XXZ=            -10.5497  XZZ=             -3.7626  YZZ=             -0.0211
  YYZ=              0.0590  XYZ=              1.0352
 Hexadecapole moment (field-independent basis, Debye-Ang**3):
 XXXX=           -441.1463 YYYY=           -138.5017 ZZZZ=            -53.6205 XXXY=            -41.8558
 XXXZ=             30.9666 YYYX=             -6.5474 YYYZ=              0.3368 ZZZX=              4.4964
 ZZZY=             -0.9673 XXYY=           -101.2070 XXZZ=            -84.0482 YYZZ=            -30.0803
 XXYZ=             -4.4064 YYXZ=              0.2929 ZZXY=             -0.4242
 N-N= 1.882021487863D+02 E-N=-1.008136325861D+03  KE= 2.684855565351D+02
 No NMR shielding tensors so no spin-rotation constants.
 Leave Link  601 at Mon Nov 10 19:55:04 2025, MaxMem=    33554432 cpu:         0.0
 (Enter /opt/programs/gaussian/g09/d_pgi133/l9999.exe)
 1\1\GINC-EXADE5\SP\RM062X\6-311++G(d,p)\C3H8O2\APINTO\10-Nov-2025\0\\#
 p M062X/6-311++G(d,p)\\SP\\0,1\C,0,1.471049,-0.179457,-0.111075\H,0,1.
 883444,-1.188785,0.037171\H,0,2.044695,0.282334,-0.929431\C,0,-0.01886
 5,-0.26915,-0.511942\H,0,-0.372832,-1.300051,-0.372976\H,0,-0.136779,-
 0.047059,-1.577302\C,0,-0.957254,0.652802,0.278712\H,0,-0.881295,0.442
 561,1.352541\H,0,-0.677514,1.700004,0.138143\O,0,1.599262,0.601798,1.0
 76354\H,0,2.537839,0.65816,1.293246\O,0,-2.300907,0.542157,-0.184199\H
 ,0,-2.603219,-0.354022,0.013494\\Version=ES64L-G09RevD.01\State=1-A\HF
 =-269.5242347\RMSD=3.352e-09\Dipole=0.9880914,-0.7750699,-0.019281\Qua
 drupole=1.5777026,-0.1037016,-1.474001,3.0346793,-0.9896361,-0.0899508
 \PG=C01 [X(C3H8O2)]\\@


 My opinions may have changed, but not the fact that I am right.
                       -- Ashleigh Brilliant
 Job cpu time:       0 days  0 hours  0 minutes 26.6 seconds.
 File lengths (MBytes):  RWF=     16 Int=      0 D2E=      0 Chk=      2 Scr=      1
 Normal termination of Gaussian 09 at Mon Nov 10 19:55:04 2025.
