 Entering Gaussian System, Link 0=g09
 Input=xcd.com
 Output=xcd.log
 Initial command:
 /opt/programs/gaussian/g09/d_pgi133/l1.exe "/scratch/users/apinto/lixo/Gau-1273682.inp" -scrdir="/scratch/users/apinto/lixo/"
 Entering Link 1 = /opt/programs/gaussian/g09/d_pgi133/l1.exe PID=   1273684.
  
 Copyright (c) 1988,1990,1992,1993,1995,1998,2003,2009,2013,
            Gaussian, Inc.  All Rights Reserved.
  
 This is part of the Gaussian(R) 09 program.  It is based on
 the Gaussian(R) 03 system (copyright 2003, Gaussian, Inc.),
 the Gaussian(R) 98 system (copyright 1998, Gaussian, Inc.),
 the Gaussian(R) 94 system (copyright 1995, Gaussian, Inc.),
 the Gaussian 92(TM) system (copyright 1992, Gaussian, Inc.),
 the Gaussian 90(TM) system (copyright 1990, Gaussian, Inc.),
 the Gaussian 88(TM) system (copyright 1988, Gaussian, Inc.),
 the Gaussian 86(TM) system (copyright 1986, Carnegie Mellon
 University), and the Gaussian 82(TM) system (copyright 1983,
 Carnegie Mellon University). Gaussian is a federally registered
 trademark of Gaussian, Inc.
  
 This software contains proprietary and confidential information,
 including trade secrets, belonging to Gaussian, Inc.
  
 This software is provided under written license and may be
 used, copied, transmitted, or stored only in accord with that
 written license.
  
 The following legend is applicable only to US Government
 contracts under FAR:
  
                    RESTRICTED RIGHTS LEGEND
  
 Use, reproduction and disclosure by the US Government is
 subject to restrictions as set forth in subparagraphs (a)
 and (c) of the Commercial Computer Software - Restricted
 Rights clause in FAR 52.227-19.
  
 Gaussian, Inc.
 340 Quinnipiac St., Bldg. 40, Wallingford CT 06492
  
  
 ---------------------------------------------------------------
 Warning -- This program may not be used in any manner that
 competes with the business of Gaussian, Inc. or will provide
 assistance to any competitor of Gaussian, Inc.  The licensee
 of this program is prohibited from giving any competitor of
 Gaussian, Inc. access to this program.  By using this program,
 the user acknowledges that Gaussian, Inc. is engaged in the
 business of creating and licensing software in the field of
 computational chemistry and represents and warrants to the
 licensee that it is not a competitor of Gaussian, Inc. and that
 it will not use this program in any manner prohibited above.
 ---------------------------------------------------------------
  

 Cite this work as:
 Gaussian 09, Revision D.01,
 M. J. Frisch, G. W. Trucks, H. B. Schlegel, G. E. Scuseria, 
 M. A. Robb, J. R. Cheeseman, G. Scalmani, V. Barone, B. Mennucci, 
 G. A. Petersson, H. Nakatsuji, M. Caricato, X. Li, H. P. Hratchian, 
 A. F. Izmaylov, J. Bloino, G. Zheng, J. L. Sonnenberg, M. Hada, 
 M. Ehara, K. Toyota, R. Fukuda, J. Hasegawa, M. Ishida, T. Nakajima, 
 Y. Honda, O. Kitao, H. Nakai, T. Vreven, J. A. Montgomery, Jr., 
 J. E. Peralta, F. Ogliaro, M. Bearpark, J. J. Heyd, E. Brothers, 
 K. N. Kudin, V. N. Staroverov, T. Keith, R. Kobayashi, J. Normand, 
 K. Raghavachari, A. Rendell, J. C. Burant, S. S. Iyengar, J. Tomasi, 
 M. Cossi, N. Rega, J. M. Millam, M. Klene, J. E. Knox, J. B. Cross, 
 V. Bakken, C. Adamo, J. Jaramillo, R. Gomperts, R. E. Stratmann, 
 O. Yazyev, A. J. Austin, R. Cammi, C. Pomelli, J. W. Ochterski, 
 R. L. Martin, K. Morokuma, V. G. Zakrzewski, G. A. Voth, 
 P. Salvador, J. J. Dannenberg, S. Dapprich, A. D. Daniels, 
 O. Farkas, J. B. Foresman, J. V. Ortiz, J. Cioslowski, 
 and D. J. Fox, Gaussian, Inc., Wallingford CT, 2013.
 
 ******************************************
 Gaussian 09:  ES64L-G09RevD.01 24-Apr-2013
                10-Nov-2025 
 ******************************************
 ----------------------
 #p M062X/6-311++G(d,p)
 ----------------------
 1/38=1/1;
 2/12=2,17=6,18=5,40=1/2;
 3/5=4,6=6,7=1111,11=2,16=1,25=1,30=1,74=-55/1,2,3;
 4//1;
 5/5=2,38=5/2;
 6/7=2,8=2,9=2,10=2,28=1/1;
 99/5=1,9=1/99;
 Leave Link    1 at Mon Nov 10 19:56:24 2025, MaxMem=           0 cpu:         0.0
 (Enter /opt/programs/gaussian/g09/d_pgi133/l101.exe)
 --
 SP
 --
 Symbolic Z-matrix:
 Charge =  0 Multiplicity = 1
 C                     1.46547  -0.13004  -0.12823 
 H                     2.00095  -1.08029  -0.27505 
 H                     1.91617   0.60435  -0.816 
 C                    -0.01632  -0.30659  -0.47973 
 H                    -0.34198  -1.31153  -0.17414 
 H                    -0.14285  -0.25399  -1.56628 
 C                    -0.95097   0.70391   0.19468 
 H                    -0.84028   0.64553   1.28342 
 H                    -0.69213   1.72598  -0.10186 
 O                     1.57564   0.33374   1.21554 
 H                     2.51374   0.43166   1.41991 
 O                    -2.30568   0.51656  -0.20805 
 H                    -2.59414  -0.33799   0.13853 
 
 NAtoms=     13 NQM=       13 NQMF=       0 NMMI=      0 NMMIF=      0
                NMic=       0 NMicF=      0.
                    Isotopes and Nuclear Properties:
 (Nuclear quadrupole moments (NQMom) in fm**2, nuclear magnetic moments (NMagM)
  in nuclear magnetons)

  Atom         1           2           3           4           5           6           7           8           9          10
 IAtWgt=          12           1           1          12           1           1          12           1           1          16
 AtmWgt=  12.0000000   1.0078250   1.0078250  12.0000000   1.0078250   1.0078250  12.0000000   1.0078250   1.0078250  15.9949146
 NucSpn=           0           1           1           0           1           1           0           1           1           0
 AtZEff=   0.0000000   0.0000000   0.0000000   0.0000000   0.0000000   0.0000000   0.0000000   0.0000000   0.0000000   0.0000000
 NQMom=    0.0000000   0.0000000   0.0000000   0.0000000   0.0000000   0.0000000   0.0000000   0.0000000   0.0000000   0.0000000
 NMagM=    0.0000000   2.7928460   2.7928460   0.0000000   2.7928460   2.7928460   0.0000000   2.7928460   2.7928460   0.0000000
 AtZNuc=   6.0000000   1.0000000   1.0000000   6.0000000   1.0000000   1.0000000   6.0000000   1.0000000   1.0000000   8.0000000

  Atom        11          12          13
 IAtWgt=           1          16           1
 AtmWgt=   1.0078250  15.9949146   1.0078250
 NucSpn=           1           0           1
 AtZEff=   0.0000000   0.0000000   0.0000000
 NQMom=    0.0000000   0.0000000   0.0000000
 NMagM=    2.7928460   0.0000000   2.7928460
 AtZNuc=   1.0000000   8.0000000   1.0000000
 Leave Link  101 at Mon Nov 10 19:56:24 2025, MaxMem=    33554432 cpu:         0.0
 (Enter /opt/programs/gaussian/g09/d_pgi133/l202.exe)
                          Input orientation:                          
 ---------------------------------------------------------------------
 Center     Atomic      Atomic             Coordinates (Angstroms)
 Number     Number       Type             X           Y           Z
 ---------------------------------------------------------------------
      1          6           0        1.465473   -0.130036   -0.128231
      2          1           0        2.000952   -1.080293   -0.275052
      3          1           0        1.916167    0.604346   -0.815999
      4          6           0       -0.016320   -0.306591   -0.479733
      5          1           0       -0.341975   -1.311526   -0.174136
      6          1           0       -0.142846   -0.253994   -1.566284
      7          6           0       -0.950969    0.703913    0.194683
      8          1           0       -0.840279    0.645531    1.283421
      9          1           0       -0.692128    1.725981   -0.101861
     10          8           0        1.575637    0.333738    1.215542
     11          1           0        2.513735    0.431655    1.419905
     12          8           0       -2.305685    0.516557   -0.208049
     13          1           0       -2.594135   -0.337988    0.138530
 ---------------------------------------------------------------------
                    Distance matrix (angstroms):
                    1          2          3          4          5
     1  C    0.000000
     2  H    1.100583   0.000000
     3  H    1.102482   1.771389   0.000000
     4  C    1.533113   2.170229   2.162727   0.000000
     5  H    2.159837   2.356472   3.030142   1.099698   0.000000
     6  H    2.161030   2.635511   2.353553   1.095157   1.759574
     7  C    2.576613   3.481074   3.041687   1.532816   2.137497
     8  H    2.812607   3.671498   3.465149   2.166600   2.490552
     9  H    2.846179   3.893308   2.927672   2.175052   3.058477
    10  O    1.425815   2.098153   2.077582   2.412116   2.883632
    11  H    1.952197   2.328479   2.320814   3.248817   3.706039
    12  O    3.827021   4.593641   4.266303   2.447974   2.683131
    13  H    4.073674   4.672996   4.705523   2.651106   2.473411
                    6          7          8          9         10
     6  H    0.000000
     7  C    2.161401   0.000000
     8  H    3.068612   1.095907   0.000000
     9  H    2.523202   1.095244   1.763045   0.000000
    10  O    3.322223   2.750076   2.436898   2.969284   0.000000
    11  H    4.055226   3.685033   3.363596   3.777381   0.965080
    12  O    2.667663   1.425676   2.094882   2.019294   4.138199
    13  H    2.987016   1.946460   2.313892   2.816982   4.358689
                   11         12         13
    11  H    0.000000
    12  O    5.087657   0.000000
    13  H    5.322087   0.966213   0.000000
 Stoichiometry    C3H8O2
 Framework group  C1[X(C3H8O2)]
 Deg. of freedom    33
 Full point group                 C1      NOp   1
 Largest Abelian subgroup         C1      NOp   1
 Largest concise Abelian subgroup C1      NOp   1
                         Standard orientation:                         
 ---------------------------------------------------------------------
 Center     Atomic      Atomic             Coordinates (Angstroms)
 Number     Number       Type             X           Y           Z
 ---------------------------------------------------------------------
      1          6           0        1.439495    0.560044    0.131312
      2          1           0        2.028076    1.260534   -0.480381
      3          1           0        1.676299    0.774871    1.186414
      4          6           0       -0.057414    0.790675   -0.106403
      5          1           0       -0.218299    1.054518   -1.161789
      6          1           0       -0.393278    1.649020    0.485042
      7          6           0       -0.941238   -0.422724    0.203499
      8          1           0       -0.619855   -1.281391   -0.396848
      9          1           0       -0.845573   -0.710589    1.255897
     10          8           0        1.757569   -0.796811   -0.169890
     11          1           0        2.703138   -0.920151   -0.021343
     12          8           0       -2.322731   -0.130172    0.007430
     13          1           0       -2.454272    0.021077   -0.937762
 ---------------------------------------------------------------------
 Rotational constants (GHZ):     12.6317326      2.5254223      2.2378044
 Leave Link  202 at Mon Nov 10 19:56:24 2025, MaxMem=    33554432 cpu:         0.0
 (Enter /opt/programs/gaussian/g09/d_pgi133/l301.exe)
 Standard basis: 6-311++G(d,p) (5D, 7F)
 Ernie: Thresh=  0.10000D-02 Tol=  0.10000D-05 Strict=F.
 There are   171 symmetry adapted cartesian basis functions of A   symmetry.
 There are   166 symmetry adapted basis functions of A   symmetry.
   166 basis functions,   252 primitive gaussians,   171 cartesian basis functions
    21 alpha electrons       21 beta electrons
       nuclear repulsion energy       188.2067844762 Hartrees.
 IExCor= 4336 DFT=T Ex+Corr=M062X ExCW=0 ScaHFX=  0.540000
 ScaDFX=  1.000000  1.000000  1.000000  1.000000 ScalE2=  1.000000  1.000000
 IRadAn=      0 IRanWt=     -1 IRanGd=            0 ICorTp=0 IEmpDi=  4
 NAtoms=   13 NActive=   13 NUniq=   13 SFac= 1.00D+00 NAtFMM=   60 NAOKFM=F Big=F
 Integral buffers will be    131072 words long.
 Raffenetti 2 integral format.
 Two-electron integral symmetry is turned on.
 Leave Link  301 at Mon Nov 10 19:56:24 2025, MaxMem=    33554432 cpu:         0.0
 (Enter /opt/programs/gaussian/g09/d_pgi133/l302.exe)
 NPDir=0 NMtPBC=     1 NCelOv=     1 NCel=       1 NClECP=     1 NCelD=      1
         NCelK=      1 NCelE2=     1 NClLst=     1 CellRange=     0.0.
 One-electron integrals computed using PRISM.
 NBasis=   166 RedAO= T EigKep=  3.80D-05  NBF=   166
 NBsUse=   166 1.00D-06 EigRej= -1.00D+00 NBFU=   166
 Precomputing XC quadrature grid using
 IXCGrd= 4 IRadAn=           0 IRanWt=          -1 IRanGd=           0 AccXCQ= 0.00D+00.
 Generated NRdTot=       0 NPtTot=           0 NUsed=           0 NTot=          32
 NSgBfM=   171   171   171   171   171 MxSgAt=    13 MxSgA2=    13.
 Leave Link  302 at Mon Nov 10 19:56:24 2025, MaxMem=    33554432 cpu:         0.1
 (Enter /opt/programs/gaussian/g09/d_pgi133/l303.exe)
 DipDrv:  MaxL=1.
 Leave Link  303 at Mon Nov 10 19:56:24 2025, MaxMem=    33554432 cpu:         0.0
 (Enter /opt/programs/gaussian/g09/d_pgi133/l401.exe)
 ExpMin= 3.60D-02 ExpMax= 8.59D+03 ExpMxC= 1.30D+03 IAcc=3 IRadAn=         5 AccDes= 0.00D+00
 Harris functional with IExCor= 1009 and IRadAn=       5 diagonalized for initial guess.
 HarFok:  IExCor= 1009 AccDes= 0.00D+00 IRadAn=         5 IDoV= 1 UseB2=F ITyADJ=14
 ICtDFT=  3500011 ScaDFX=  1.000000  1.000000  1.000000  1.000000
 FoFCou: FMM=F IPFlag=           0 FMFlag=      100000 FMFlg1=           0
         NFxFlg=           0 DoJE=T BraDBF=F KetDBF=T FulRan=T
         wScrn=  0.000000 ICntrl=     500 IOpCl=  0 I1Cent=   200000004 NGrid=           0
         NMat0=    1 NMatS0=      1 NMatT0=    0 NMatD0=    1 NMtDS0=    0 NMtDT0=    0
 Petite list used in FoFCou.
 Harris En= -269.440934548722    
 JPrj=0 DoOrth=F DoCkMO=F.
 Leave Link  401 at Mon Nov 10 19:56:25 2025, MaxMem=    33554432 cpu:         1.5
 (Enter /opt/programs/gaussian/g09/d_pgi133/l502.exe)
 Closed shell SCF:
 Using DIIS extrapolation, IDIIS=  1040.
 Integral symmetry usage will be decided dynamically.
 IVT=      108587 IEndB=      108587 NGot=    33554432 MDV=    33491898
 LenX=    33491898 LenY=    33462216
 Requested convergence on RMS density matrix=1.00D-08 within 128 cycles.
 Requested convergence on MAX density matrix=1.00D-06.
 Requested convergence on             energy=1.00D-06.
 No special actions if energy rises.
 Fock matrices will be formed incrementally for  20 cycles.

 Cycle   1  Pass 1  IDiag  1:
 FoFJK:  IHMeth= 1 ICntrl=       0 DoSepK=F KAlg= 0 I1Cent=   0 FoldK=F
 IRaf= 980000000 NMat=   1 IRICut=       1 DoRegI=T DoRafI=F ISym2E= 0.
 FoFCou: FMM=F IPFlag=           0 FMFlag=      100000 FMFlg1=           0
         NFxFlg=           0 DoJE=F BraDBF=F KetDBF=F FulRan=T
         wScrn=  0.000000 ICntrl=       0 IOpCl=  0 I1Cent=           0 NGrid=           0
         NMat0=    1 NMatS0=      1 NMatT0=    0 NMatD0=    1 NMtDS0=    0 NMtDT0=    0
 Symmetry not used in FoFCou.
 E= -269.360486823720    
 DIIS: error= 2.82D-02 at cycle   1 NSaved=   1.
 NSaved= 1 IEnMin= 1 EnMin= -269.360486823720     IErMin= 1 ErrMin= 2.82D-02
 ErrMax= 2.82D-02  0.00D+00 EMaxC= 1.00D-01 BMatC= 2.34D-01 BMatP= 2.34D-01
 IDIUse=3 WtCom= 7.18D-01 WtEn= 2.82D-01
 Coeff-Com:  0.100D+01
 Coeff-En:   0.100D+01
 Coeff:      0.100D+01
 Gap=     0.294 Goal=   None    Shift=    0.000
 GapD=    0.294 DampG=1.000 DampE=0.500 DampFc=0.5000 IDamp=-1.
 Damping current iteration by 5.00D-01
 RMSDP=6.20D-03 MaxDP=1.46D-01              OVMax= 1.37D-01

 Cycle   2  Pass 1  IDiag  1:
 RMSU=  3.07D-03    CP:  9.73D-01
 E= -269.441179739424     Delta-E=       -0.080692915704 Rises=F Damp=T
 DIIS: error= 7.11D-03 at cycle   2 NSaved=   2.
 NSaved= 2 IEnMin= 2 EnMin= -269.441179739424     IErMin= 2 ErrMin= 7.11D-03
 ErrMax= 7.11D-03  0.00D+00 EMaxC= 1.00D-01 BMatC= 1.52D-02 BMatP= 2.34D-01
 IDIUse=3 WtCom= 9.29D-01 WtEn= 7.11D-02
 Coeff-Com: -0.381D-01 0.104D+01
 Coeff-En:   0.000D+00 0.100D+01
 Coeff:     -0.354D-01 0.104D+01
 Gap=     0.340 Goal=   None    Shift=    0.000
 RMSDP=1.86D-03 MaxDP=6.88D-02 DE=-8.07D-02 OVMax= 7.12D-02

 Cycle   3  Pass 1  IDiag  1:
 RMSU=  1.83D-03    CP:  9.50D-01  9.64D-01
 E= -269.525444636554     Delta-E=       -0.084264897130 Rises=F Damp=F
 DIIS: error= 4.64D-03 at cycle   3 NSaved=   3.
 NSaved= 3 IEnMin= 3 EnMin= -269.525444636554     IErMin= 3 ErrMin= 4.64D-03
 ErrMax= 4.64D-03  0.00D+00 EMaxC= 1.00D-01 BMatC= 3.94D-03 BMatP= 1.52D-02
 IDIUse=3 WtCom= 9.54D-01 WtEn= 4.64D-02
 Coeff-Com: -0.776D-01 0.314D+00 0.764D+00
 Coeff-En:   0.000D+00 0.000D+00 0.100D+01
 Coeff:     -0.740D-01 0.299D+00 0.775D+00
 Gap=     0.335 Goal=   None    Shift=    0.000
 RMSDP=3.62D-04 MaxDP=8.75D-03 DE=-8.43D-02 OVMax= 1.15D-02

 Cycle   4  Pass 1  IDiag  1:
 RMSU=  3.19D-04    CP:  9.51D-01  1.02D+00  9.80D-01
 E= -269.527541856439     Delta-E=       -0.002097219885 Rises=F Damp=F
 DIIS: error= 1.61D-03 at cycle   4 NSaved=   4.
 NSaved= 4 IEnMin= 4 EnMin= -269.527541856439     IErMin= 4 ErrMin= 1.61D-03
 ErrMax= 1.61D-03  0.00D+00 EMaxC= 1.00D-01 BMatC= 7.29D-04 BMatP= 3.94D-03
 IDIUse=3 WtCom= 9.84D-01 WtEn= 1.61D-02
 Coeff-Com: -0.318D-01 0.853D-01 0.373D+00 0.573D+00
 Coeff-En:   0.000D+00 0.000D+00 0.102D+00 0.898D+00
 Coeff:     -0.312D-01 0.839D-01 0.369D+00 0.579D+00
 Gap=     0.333 Goal=   None    Shift=    0.000
 RMSDP=1.54D-04 MaxDP=3.48D-03 DE=-2.10D-03 OVMax= 4.53D-03

 Cycle   5  Pass 1  IDiag  1:
 RMSU=  1.01D-04    CP:  9.49D-01  1.01D+00  9.86D-01  6.61D-01
 E= -269.528127074574     Delta-E=       -0.000585218135 Rises=F Damp=F
 DIIS: error= 2.04D-04 at cycle   5 NSaved=   5.
 NSaved= 5 IEnMin= 5 EnMin= -269.528127074574     IErMin= 5 ErrMin= 2.04D-04
 ErrMax= 2.04D-04  0.00D+00 EMaxC= 1.00D-01 BMatC= 1.01D-05 BMatP= 7.29D-04
 IDIUse=3 WtCom= 9.98D-01 WtEn= 2.04D-03
 Coeff-Com: -0.392D-02 0.567D-02 0.540D-01 0.153D+00 0.791D+00
 Coeff-En:   0.000D+00 0.000D+00 0.000D+00 0.000D+00 0.100D+01
 Coeff:     -0.391D-02 0.566D-02 0.539D-01 0.153D+00 0.792D+00
 Gap=     0.333 Goal=   None    Shift=    0.000
 RMSDP=3.36D-05 MaxDP=1.08D-03 DE=-5.85D-04 OVMax= 5.96D-04

 Cycle   6  Pass 1  IDiag  1:
 RMSU=  2.52D-05    CP:  9.49D-01  1.00D+00  9.91D-01  7.05D-01  9.10D-01
 E= -269.528135447838     Delta-E=       -0.000008373264 Rises=F Damp=F
 DIIS: error= 2.44D-05 at cycle   6 NSaved=   6.
 NSaved= 6 IEnMin= 6 EnMin= -269.528135447838     IErMin= 6 ErrMin= 2.44D-05
 ErrMax= 2.44D-05  0.00D+00 EMaxC= 1.00D-01 BMatC= 1.29D-07 BMatP= 1.01D-05
 IDIUse=1 WtCom= 1.00D+00 WtEn= 0.00D+00
 Coeff-Com:  0.848D-03-0.222D-02-0.816D-02-0.811D-02 0.305D-01 0.987D+00
 Coeff:      0.848D-03-0.222D-02-0.816D-02-0.811D-02 0.305D-01 0.987D+00
 Gap=     0.333 Goal=   None    Shift=    0.000
 RMSDP=9.32D-06 MaxDP=3.59D-04 DE=-8.37D-06 OVMax= 1.36D-04

 Cycle   7  Pass 1  IDiag  1:
 RMSU=  4.65D-06    CP:  9.49D-01  1.00D+00  9.92D-01  7.10D-01  9.43D-01
                    CP:  1.09D+00
 E= -269.528135614609     Delta-E=       -0.000000166771 Rises=F Damp=F
 DIIS: error= 7.47D-06 at cycle   7 NSaved=   7.
 NSaved= 7 IEnMin= 7 EnMin= -269.528135614609     IErMin= 7 ErrMin= 7.47D-06
 ErrMax= 7.47D-06  0.00D+00 EMaxC= 1.00D-01 BMatC= 2.14D-08 BMatP= 1.29D-07
 IDIUse=1 WtCom= 1.00D+00 WtEn= 0.00D+00
 Coeff-Com:  0.485D-03-0.102D-02-0.553D-02-0.107D-01-0.333D-01 0.294D+00
 Coeff-Com:  0.756D+00
 Coeff:      0.485D-03-0.102D-02-0.553D-02-0.107D-01-0.333D-01 0.294D+00
 Coeff:      0.756D+00
 Gap=     0.333 Goal=   None    Shift=    0.000
 RMSDP=1.52D-06 MaxDP=4.39D-05 DE=-1.67D-07 OVMax= 3.53D-05

 Cycle   8  Pass 1  IDiag  1:
 RMSU=  7.65D-07    CP:  9.49D-01  1.00D+00  9.92D-01  7.11D-01  9.47D-01
                    CP:  1.13D+00  9.32D-01
 E= -269.528135634705     Delta-E=       -0.000000020097 Rises=F Damp=F
 DIIS: error= 3.12D-06 at cycle   8 NSaved=   8.
 NSaved= 8 IEnMin= 8 EnMin= -269.528135634705     IErMin= 8 ErrMin= 3.12D-06
 ErrMax= 3.12D-06  0.00D+00 EMaxC= 1.00D-01 BMatC= 2.08D-09 BMatP= 2.14D-08
 IDIUse=1 WtCom= 1.00D+00 WtEn= 0.00D+00
 Coeff-Com:  0.100D-03-0.192D-03-0.132D-02-0.296D-02-0.132D-01 0.381D-01
 Coeff-Com:  0.269D+00 0.711D+00
 Coeff:      0.100D-03-0.192D-03-0.132D-02-0.296D-02-0.132D-01 0.381D-01
 Coeff:      0.269D+00 0.711D+00
 Gap=     0.333 Goal=   None    Shift=    0.000
 RMSDP=4.70D-07 MaxDP=1.98D-05 DE=-2.01D-08 OVMax= 1.41D-05

 Cycle   9  Pass 1  IDiag  1:
 RMSU=  2.79D-07    CP:  9.49D-01  1.00D+00  9.92D-01  7.11D-01  9.47D-01
                    CP:  1.13D+00  9.87D-01  9.70D-01
 E= -269.528135636660     Delta-E=       -0.000000001955 Rises=F Damp=F
 DIIS: error= 6.72D-07 at cycle   9 NSaved=   9.
 NSaved= 9 IEnMin= 9 EnMin= -269.528135636660     IErMin= 9 ErrMin= 6.72D-07
 ErrMax= 6.72D-07  0.00D+00 EMaxC= 1.00D-01 BMatC= 1.02D-10 BMatP= 2.08D-09
 IDIUse=1 WtCom= 1.00D+00 WtEn= 0.00D+00
 Coeff-Com: -0.138D-04 0.306D-04 0.788D-04 0.788D-04-0.750D-03-0.127D-01
 Coeff-Com:  0.695D-02 0.171D+00 0.835D+00
 Coeff:     -0.138D-04 0.306D-04 0.788D-04 0.788D-04-0.750D-03-0.127D-01
 Coeff:      0.695D-02 0.171D+00 0.835D+00
 Gap=     0.333 Goal=   None    Shift=    0.000
 RMSDP=9.84D-08 MaxDP=2.46D-06 DE=-1.96D-09 OVMax= 3.39D-06

 Cycle  10  Pass 1  IDiag  1:
 RMSU=  6.56D-08    CP:  9.49D-01  1.00D+00  9.92D-01  7.11D-01  9.46D-01
                    CP:  1.13D+00  9.98D-01  1.02D+00  1.04D+00
 E= -269.528135636741     Delta-E=       -0.000000000081 Rises=F Damp=F
 DIIS: error= 2.67D-07 at cycle  10 NSaved=  10.
 NSaved=10 IEnMin=10 EnMin= -269.528135636741     IErMin=10 ErrMin= 2.67D-07
 ErrMax= 2.67D-07  0.00D+00 EMaxC= 1.00D-01 BMatC= 2.68D-11 BMatP= 1.02D-10
 IDIUse=1 WtCom= 1.00D+00 WtEn= 0.00D+00
 Coeff-Com: -0.131D-04 0.272D-04 0.128D-03 0.241D-03 0.559D-03-0.840D-02
 Coeff-Com: -0.183D-01 0.242D-01 0.403D+00 0.598D+00
 Coeff:     -0.131D-04 0.272D-04 0.128D-03 0.241D-03 0.559D-03-0.840D-02
 Coeff:     -0.183D-01 0.242D-01 0.403D+00 0.598D+00
 Gap=     0.333 Goal=   None    Shift=    0.000
 RMSDP=4.40D-08 MaxDP=1.58D-06 DE=-8.08D-11 OVMax= 1.38D-06

 Cycle  11  Pass 1  IDiag  1:
 RMSU=  2.30D-08    CP:  9.49D-01  1.00D+00  9.92D-01  7.11D-01  9.47D-01
                    CP:  1.13D+00  1.00D+00  1.03D+00  1.09D+00  8.36D-01
 E= -269.528135636769     Delta-E=       -0.000000000028 Rises=F Damp=F
 DIIS: error= 5.40D-08 at cycle  11 NSaved=  11.
 NSaved=11 IEnMin=11 EnMin= -269.528135636769     IErMin=11 ErrMin= 5.40D-08
 ErrMax= 5.40D-08  0.00D+00 EMaxC= 1.00D-01 BMatC= 9.43D-13 BMatP= 2.68D-11
 IDIUse=1 WtCom= 1.00D+00 WtEn= 0.00D+00
 Coeff-Com: -0.102D-05 0.235D-05 0.181D-04 0.333D-04 0.144D-03-0.441D-03
 Coeff-Com: -0.417D-02-0.109D-01-0.160D-02 0.142D+00 0.875D+00
 Coeff:     -0.102D-05 0.235D-05 0.181D-04 0.333D-04 0.144D-03-0.441D-03
 Coeff:     -0.417D-02-0.109D-01-0.160D-02 0.142D+00 0.875D+00
 Gap=     0.333 Goal=   None    Shift=    0.000
 RMSDP=1.18D-08 MaxDP=2.71D-07 DE=-2.81D-11 OVMax= 5.41D-07

 Cycle  12  Pass 1  IDiag  1:
 RMSU=  8.41D-09    CP:  9.49D-01  1.00D+00  9.92D-01  7.11D-01  9.47D-01
                    CP:  1.13D+00  1.00D+00  1.04D+00  1.11D+00  9.05D-01
                    CP:  1.02D+00
 E= -269.528135636766     Delta-E=        0.000000000004 Rises=F Damp=F
 DIIS: error= 1.37D-08 at cycle  12 NSaved=  12.
 NSaved=12 IEnMin=11 EnMin= -269.528135636769     IErMin=12 ErrMin= 1.37D-08
 ErrMax= 1.37D-08  0.00D+00 EMaxC= 1.00D-01 BMatC= 4.82D-14 BMatP= 9.43D-13
 IDIUse=1 WtCom= 1.00D+00 WtEn= 0.00D+00
 Coeff-Com:  0.858D-06-0.166D-05-0.590D-05-0.125D-04-0.207D-04 0.544D-03
 Coeff-Com:  0.656D-03-0.381D-02-0.303D-01-0.227D-01 0.139D+00 0.916D+00
 Coeff:      0.858D-06-0.166D-05-0.590D-05-0.125D-04-0.207D-04 0.544D-03
 Coeff:      0.656D-03-0.381D-02-0.303D-01-0.227D-01 0.139D+00 0.916D+00
 Gap=     0.333 Goal=   None    Shift=    0.000
 RMSDP=4.40D-09 MaxDP=1.77D-07 DE= 3.52D-12 OVMax= 1.85D-07

 SCF Done:  E(RM062X) =  -269.528135637     A.U. after   12 cycles
            NFock= 12  Conv=0.44D-08     -V/T= 2.0039
 KE= 2.684895657840D+02 PE=-1.008123134681D+03 EE= 2.818986487841D+02
 Leave Link  502 at Mon Nov 10 19:56:50 2025, MaxMem=    33554432 cpu:        24.8
 (Enter /opt/programs/gaussian/g09/d_pgi133/l601.exe)
 Copying SCF densities to generalized density rwf, IOpCl= 0 IROHF=0.

 **********************************************************************

            Population analysis using the SCF density.

 **********************************************************************

 Orbital symmetries:
       Occupied  (A) (A) (A) (A) (A) (A) (A) (A) (A) (A) (A) (A)
                 (A) (A) (A) (A) (A) (A) (A) (A) (A)
       Virtual   (A) (A) (A) (A) (A) (A) (A) (A) (A) (A) (A) (A)
                 (A) (A) (A) (A) (A) (A) (A) (A) (A) (A) (A) (A)
                 (A) (A) (A) (A) (A) (A) (A) (A) (A) (A) (A) (A)
                 (A) (A) (A) (A) (A) (A) (A) (A) (A) (A) (A) (A)
                 (A) (A) (A) (A) (A) (A) (A) (A) (A) (A) (A) (A)
                 (A) (A) (A) (A) (A) (A) (A) (A) (A) (A) (A) (A)
                 (A) (A) (A) (A) (A) (A) (A) (A) (A) (A) (A) (A)
                 (A) (A) (A) (A) (A) (A) (A) (A) (A) (A) (A) (A)
                 (A) (A) (A) (A) (A) (A) (A) (A) (A) (A) (A) (A)
                 (A) (A) (A) (A) (A) (A) (A) (A) (A) (A) (A) (A)
                 (A) (A) (A) (A) (A) (A) (A) (A) (A) (A) (A) (A)
                 (A) (A) (A) (A) (A) (A) (A) (A) (A) (A) (A) (A)
                 (A)
 The electronic state is 1-A.
 Alpha  occ. eigenvalues --  -19.63073 -19.61686 -10.59418 -10.57688 -10.53773
 Alpha  occ. eigenvalues --   -1.15239  -1.13742  -0.87268  -0.76341  -0.68039
 Alpha  occ. eigenvalues --   -0.61163  -0.56486  -0.55418  -0.51254  -0.48663
 Alpha  occ. eigenvalues --   -0.45179  -0.44417  -0.41414  -0.39049  -0.35602
 Alpha  occ. eigenvalues --   -0.34082
 Alpha virt. eigenvalues --   -0.00789   0.00525   0.01509   0.01936   0.03965
 Alpha virt. eigenvalues --    0.04464   0.05002   0.05653   0.08136   0.09490
 Alpha virt. eigenvalues --    0.09984   0.11453   0.12004   0.12266   0.13190
 Alpha virt. eigenvalues --    0.13554   0.14618   0.15076   0.16672   0.16936
 Alpha virt. eigenvalues --    0.19864   0.20103   0.22380   0.22774   0.23066
 Alpha virt. eigenvalues --    0.25399   0.25535   0.25608   0.27539   0.29030
 Alpha virt. eigenvalues --    0.30104   0.31330   0.31604   0.32869   0.33986
 Alpha virt. eigenvalues --    0.34157   0.36083   0.39747   0.40972   0.42291
 Alpha virt. eigenvalues --    0.47811   0.48681   0.51096   0.52213   0.57693
 Alpha virt. eigenvalues --    0.59535   0.61501   0.62898   0.66573   0.67959
 Alpha virt. eigenvalues --    0.68709   0.71330   0.72512   0.73690   0.75415
 Alpha virt. eigenvalues --    0.77445   0.78648   0.93002   0.95902   0.98186
 Alpha virt. eigenvalues --    1.05093   1.05570   1.13092   1.15843   1.18759
 Alpha virt. eigenvalues --    1.21774   1.24849   1.25745   1.30439   1.34472
 Alpha virt. eigenvalues --    1.39555   1.44067   1.45790   1.49205   1.53725
 Alpha virt. eigenvalues --    1.55104   1.58925   1.60474   1.61245   1.63771
 Alpha virt. eigenvalues --    1.64484   1.66706   1.69400   1.69879   1.74801
 Alpha virt. eigenvalues --    1.79931   1.80997   1.82896   1.85140   1.88807
 Alpha virt. eigenvalues --    1.96779   2.02520   2.04620   2.07979   2.10986
 Alpha virt. eigenvalues --    2.13761   2.19286   2.22185   2.29551   2.32566
 Alpha virt. eigenvalues --    2.37478   2.45812   2.51020   2.54135   2.55327
 Alpha virt. eigenvalues --    2.57427   2.57994   2.63997   2.67189   2.67655
 Alpha virt. eigenvalues --    2.70838   2.76732   2.83478   2.88825   2.88932
 Alpha virt. eigenvalues --    2.99200   3.02776   3.11242   3.17627   3.19334
 Alpha virt. eigenvalues --    3.23584   3.26319   3.33230   3.37332   3.43122
 Alpha virt. eigenvalues --    3.74117   3.81669   3.91072   3.93924   3.95503
 Alpha virt. eigenvalues --    4.04578   4.06252   4.17715   4.33618   5.16676
 Alpha virt. eigenvalues --    5.20434   5.49517   5.51118   5.73088   5.74739
 Alpha virt. eigenvalues --   23.89477  23.93142  23.97531  50.01321  50.03802
          Condensed to atoms (all electrons):
               1          2          3          4          5          6
     1  C    5.431609   0.356006   0.429369   0.110751  -0.053773  -0.049901
     2  H    0.356006   0.661870  -0.092985   0.016939  -0.037985   0.017876
     3  H    0.429369  -0.092985   0.648063  -0.068444   0.020304  -0.025736
     4  C    0.110751   0.016939  -0.068444   5.474590   0.434531   0.425004
     5  H   -0.053773  -0.037985   0.020304   0.434531   0.612149  -0.068900
     6  H   -0.049901   0.017876  -0.025736   0.425004  -0.068900   0.550271
     7  C   -0.034022  -0.010229   0.001363   0.037382  -0.017766  -0.060548
     8  H   -0.027041   0.008120  -0.005524   0.029145  -0.037808   0.020469
     9  H    0.000870  -0.004337   0.001818  -0.024371   0.016116  -0.018131
    10  O    0.137329  -0.056992  -0.066573  -0.062639  -0.011730   0.022390
    11  H    0.025856  -0.012520  -0.003554  -0.010978   0.004087  -0.002048
    12  O    0.029602   0.001104  -0.000857  -0.101312  -0.029025   0.016408
    13  H    0.006035  -0.000229   0.000040   0.024183   0.009495  -0.007408
               7          8          9         10         11         12
     1  C   -0.034022  -0.027041   0.000870   0.137329   0.025856   0.029602
     2  H   -0.010229   0.008120  -0.004337  -0.056992  -0.012520   0.001104
     3  H    0.001363  -0.005524   0.001818  -0.066573  -0.003554  -0.000857
     4  C    0.037382   0.029145  -0.024371  -0.062639  -0.010978  -0.101312
     5  H   -0.017766  -0.037808   0.016116  -0.011730   0.004087  -0.029025
     6  H   -0.060548   0.020469  -0.018131   0.022390  -0.002048   0.016408
     7  C    5.540197   0.308258   0.421878  -0.021150  -0.002134   0.235534
     8  H    0.308258   0.622762  -0.071066   0.019079  -0.000092  -0.020943
     9  H    0.421878  -0.071066   0.569950  -0.021448   0.000428  -0.089272
    10  O   -0.021150   0.019079  -0.021448   8.134406   0.213231   0.000075
    11  H   -0.002134  -0.000092   0.000428   0.213231   0.520880   0.000011
    12  O    0.235534  -0.020943  -0.089272   0.000075   0.000011   7.978588
    13  H   -0.058535  -0.023585   0.020587   0.000388  -0.000187   0.249292
              13
     1  C    0.006035
     2  H   -0.000229
     3  H    0.000040
     4  C    0.024183
     5  H    0.009495
     6  H   -0.007408
     7  C   -0.058535
     8  H   -0.023585
     9  H    0.020587
    10  O    0.000388
    11  H   -0.000187
    12  O    0.249292
    13  H    0.535518
 Mulliken charges:
               1
     1  C   -0.362692
     2  H    0.153362
     3  H    0.162718
     4  C   -0.284779
     5  H    0.160305
     6  H    0.180254
     7  C   -0.340227
     8  H    0.178226
     9  H    0.196979
    10  O   -0.286366
    11  H    0.267020
    12  O   -0.269206
    13  H    0.244406
 Sum of Mulliken charges =   0.00000
 Mulliken charges with hydrogens summed into heavy atoms:
               1
     1  C   -0.046612
     4  C    0.055780
     7  C    0.034978
    10  O   -0.019346
    12  O   -0.024800
 Electronic spatial extent (au):  <R**2>=            550.6919
 Charge=              0.0000 electrons
 Dipole moment (field-independent basis, Debye):
    X=              2.6341    Y=              1.1316    Z=             -0.7238  Tot=              2.9568
 Quadrupole moment (field-independent basis, Debye-Ang):
   XX=            -30.9263   YY=            -32.8624   ZZ=            -30.3033
   XY=             -0.0425   XZ=              4.8704   YZ=             -0.5475
 Traceless Quadrupole moment (field-independent basis, Debye-Ang):
   XX=              0.4377   YY=             -1.4984   ZZ=              1.0607
   XY=             -0.0425   XZ=              4.8704   YZ=             -0.5475
 Octapole moment (field-independent basis, Debye-Ang**2):
  XXX=             37.5782  YYY=             -2.8175  ZZZ=             -1.4835  XYY=              1.2065
  XXY=             -3.2086  XXZ=             -9.4968  XZZ=             -5.5393  YZZ=             -0.4670
  YYZ=              0.0224  XYZ=             -0.6454
 Hexadecapole moment (field-independent basis, Debye-Ang**3):
 XXXX=           -451.6130 YYYY=           -130.6563 ZZZZ=            -57.0181 XXXY=            -32.2737
 XXXZ=             32.2164 YYYX=             -5.9456 YYYZ=              1.9211 ZZZX=              6.3752
 ZZZY=             -0.9671 XXYY=           -101.5074 XXZZ=            -82.7900 YYZZ=            -31.4146
 XXYZ=             -3.0150 YYXZ=             -0.1396 ZZXY=              0.2011
 N-N= 1.882067844762D+02 E-N=-1.008123135015D+03  KE= 2.684895657840D+02
 No NMR shielding tensors so no spin-rotation constants.
 Leave Link  601 at Mon Nov 10 19:56:50 2025, MaxMem=    33554432 cpu:         0.0
 (Enter /opt/programs/gaussian/g09/d_pgi133/l9999.exe)
 1\1\GINC-EXADE5\SP\RM062X\6-311++G(d,p)\C3H8O2\APINTO\10-Nov-2025\0\\#
 p M062X/6-311++G(d,p)\\SP\\0,1\C,0,1.465473,-0.130036,-0.128231\H,0,2.
 000952,-1.080293,-0.275052\H,0,1.916167,0.604346,-0.815999\C,0,-0.0163
 2,-0.306591,-0.479733\H,0,-0.341975,-1.311526,-0.174136\H,0,-0.142846,
 -0.253994,-1.566284\C,0,-0.950969,0.703913,0.194683\H,0,-0.840279,0.64
 5531,1.283421\H,0,-0.692128,1.725981,-0.101861\O,0,1.575637,0.333738,1
 .215542\H,0,2.513735,0.431655,1.419905\O,0,-2.305685,0.516557,-0.20804
 9\H,0,-2.594135,-0.337988,0.13853\\Version=ES64L-G09RevD.01\State=1-A\
 HF=-269.5281356\RMSD=4.404e-09\Dipole=1.0065221,-0.5828307,-0.0217623\
 Quadrupole=1.6200895,-0.0137236,-1.606366,3.0474809,-1.5390358,0.06612
 7\PG=C01 [X(C3H8O2)]\\@


 LENDING MONEY TO FRIENDS CAUSES THEM TO LOSE THEIR MEMORIES.

    --  PETER'S THEORY OF RECIPROCAL INHIBITION OF FISCAL RECALL
 Job cpu time:       0 days  0 hours  0 minutes 26.4 seconds.
 File lengths (MBytes):  RWF=     16 Int=      0 D2E=      0 Chk=      2 Scr=      1
 Normal termination of Gaussian 09 at Mon Nov 10 19:56:50 2025.
