 Entering Gaussian System, Link 0=g09
 Input=xcg.com
 Output=xcg.log
 Initial command:
 /opt/programs/gaussian/g09/d_pgi133/l1.exe "/scratch/users/apinto/lixo/Gau-1274334.inp" -scrdir="/scratch/users/apinto/lixo/"
 Entering Link 1 = /opt/programs/gaussian/g09/d_pgi133/l1.exe PID=   1274336.
  
 Copyright (c) 1988,1990,1992,1993,1995,1998,2003,2009,2013,
            Gaussian, Inc.  All Rights Reserved.
  
 This is part of the Gaussian(R) 09 program.  It is based on
 the Gaussian(R) 03 system (copyright 2003, Gaussian, Inc.),
 the Gaussian(R) 98 system (copyright 1998, Gaussian, Inc.),
 the Gaussian(R) 94 system (copyright 1995, Gaussian, Inc.),
 the Gaussian 92(TM) system (copyright 1992, Gaussian, Inc.),
 the Gaussian 90(TM) system (copyright 1990, Gaussian, Inc.),
 the Gaussian 88(TM) system (copyright 1988, Gaussian, Inc.),
 the Gaussian 86(TM) system (copyright 1986, Carnegie Mellon
 University), and the Gaussian 82(TM) system (copyright 1983,
 Carnegie Mellon University). Gaussian is a federally registered
 trademark of Gaussian, Inc.
  
 This software contains proprietary and confidential information,
 including trade secrets, belonging to Gaussian, Inc.
  
 This software is provided under written license and may be
 used, copied, transmitted, or stored only in accord with that
 written license.
  
 The following legend is applicable only to US Government
 contracts under FAR:
  
                    RESTRICTED RIGHTS LEGEND
  
 Use, reproduction and disclosure by the US Government is
 subject to restrictions as set forth in subparagraphs (a)
 and (c) of the Commercial Computer Software - Restricted
 Rights clause in FAR 52.227-19.
  
 Gaussian, Inc.
 340 Quinnipiac St., Bldg. 40, Wallingford CT 06492
  
  
 ---------------------------------------------------------------
 Warning -- This program may not be used in any manner that
 competes with the business of Gaussian, Inc. or will provide
 assistance to any competitor of Gaussian, Inc.  The licensee
 of this program is prohibited from giving any competitor of
 Gaussian, Inc. access to this program.  By using this program,
 the user acknowledges that Gaussian, Inc. is engaged in the
 business of creating and licensing software in the field of
 computational chemistry and represents and warrants to the
 licensee that it is not a competitor of Gaussian, Inc. and that
 it will not use this program in any manner prohibited above.
 ---------------------------------------------------------------
  

 Cite this work as:
 Gaussian 09, Revision D.01,
 M. J. Frisch, G. W. Trucks, H. B. Schlegel, G. E. Scuseria, 
 M. A. Robb, J. R. Cheeseman, G. Scalmani, V. Barone, B. Mennucci, 
 G. A. Petersson, H. Nakatsuji, M. Caricato, X. Li, H. P. Hratchian, 
 A. F. Izmaylov, J. Bloino, G. Zheng, J. L. Sonnenberg, M. Hada, 
 M. Ehara, K. Toyota, R. Fukuda, J. Hasegawa, M. Ishida, T. Nakajima, 
 Y. Honda, O. Kitao, H. Nakai, T. Vreven, J. A. Montgomery, Jr., 
 J. E. Peralta, F. Ogliaro, M. Bearpark, J. J. Heyd, E. Brothers, 
 K. N. Kudin, V. N. Staroverov, T. Keith, R. Kobayashi, J. Normand, 
 K. Raghavachari, A. Rendell, J. C. Burant, S. S. Iyengar, J. Tomasi, 
 M. Cossi, N. Rega, J. M. Millam, M. Klene, J. E. Knox, J. B. Cross, 
 V. Bakken, C. Adamo, J. Jaramillo, R. Gomperts, R. E. Stratmann, 
 O. Yazyev, A. J. Austin, R. Cammi, C. Pomelli, J. W. Ochterski, 
 R. L. Martin, K. Morokuma, V. G. Zakrzewski, G. A. Voth, 
 P. Salvador, J. J. Dannenberg, S. Dapprich, A. D. Daniels, 
 O. Farkas, J. B. Foresman, J. V. Ortiz, J. Cioslowski, 
 and D. J. Fox, Gaussian, Inc., Wallingford CT, 2013.
 
 ******************************************
 Gaussian 09:  ES64L-G09RevD.01 24-Apr-2013
                10-Nov-2025 
 ******************************************
 ----------------------
 #p M062X/6-311++G(d,p)
 ----------------------
 1/38=1/1;
 2/12=2,17=6,18=5,40=1/2;
 3/5=4,6=6,7=1111,11=2,16=1,25=1,30=1,74=-55/1,2,3;
 4//1;
 5/5=2,38=5/2;
 6/7=2,8=2,9=2,10=2,28=1/1;
 99/5=1,9=1/99;
 Leave Link    1 at Mon Nov 10 19:57:44 2025, MaxMem=           0 cpu:         0.0
 (Enter /opt/programs/gaussian/g09/d_pgi133/l101.exe)
 --
 SP
 --
 Symbolic Z-matrix:
 Charge =  0 Multiplicity = 1
 C                     1.4575   -0.08916  -0.12786 
 H                     2.05776  -0.94578  -0.47144 
 H                     1.80969   0.79838  -0.67995 
 C                    -0.0138   -0.33256  -0.44747 
 H                    -0.30485  -1.31308  -0.04474 
 H                    -0.1435   -0.38184  -1.53466 
 C                    -0.95268   0.73023   0.13012 
 H                    -0.82373   0.78884   1.21783 
 H                    -0.70399   1.71578  -0.28008 
 O                     1.58953   0.11072   1.2773 
 H                     2.52067   0.27602   1.47001 
 O                    -2.31235   0.4964   -0.22694 
 H                    -2.59262  -0.31265   0.22062 
 
 NAtoms=     13 NQM=       13 NQMF=       0 NMMI=      0 NMMIF=      0
                NMic=       0 NMicF=      0.
                    Isotopes and Nuclear Properties:
 (Nuclear quadrupole moments (NQMom) in fm**2, nuclear magnetic moments (NMagM)
  in nuclear magnetons)

  Atom         1           2           3           4           5           6           7           8           9          10
 IAtWgt=          12           1           1          12           1           1          12           1           1          16
 AtmWgt=  12.0000000   1.0078250   1.0078250  12.0000000   1.0078250   1.0078250  12.0000000   1.0078250   1.0078250  15.9949146
 NucSpn=           0           1           1           0           1           1           0           1           1           0
 AtZEff=   0.0000000   0.0000000   0.0000000   0.0000000   0.0000000   0.0000000   0.0000000   0.0000000   0.0000000   0.0000000
 NQMom=    0.0000000   0.0000000   0.0000000   0.0000000   0.0000000   0.0000000   0.0000000   0.0000000   0.0000000   0.0000000
 NMagM=    0.0000000   2.7928460   2.7928460   0.0000000   2.7928460   2.7928460   0.0000000   2.7928460   2.7928460   0.0000000
 AtZNuc=   6.0000000   1.0000000   1.0000000   6.0000000   1.0000000   1.0000000   6.0000000   1.0000000   1.0000000   8.0000000

  Atom        11          12          13
 IAtWgt=           1          16           1
 AtmWgt=   1.0078250  15.9949146   1.0078250
 NucSpn=           1           0           1
 AtZEff=   0.0000000   0.0000000   0.0000000
 NQMom=    0.0000000   0.0000000   0.0000000
 NMagM=    2.7928460   0.0000000   2.7928460
 AtZNuc=   1.0000000   8.0000000   1.0000000
 Leave Link  101 at Mon Nov 10 19:57:44 2025, MaxMem=    33554432 cpu:         0.0
 (Enter /opt/programs/gaussian/g09/d_pgi133/l202.exe)
                          Input orientation:                          
 ---------------------------------------------------------------------
 Center     Atomic      Atomic             Coordinates (Angstroms)
 Number     Number       Type             X           Y           Z
 ---------------------------------------------------------------------
      1          6           0        1.457497   -0.089157   -0.127859
      2          1           0        2.057755   -0.945777   -0.471443
      3          1           0        1.809688    0.798382   -0.679950
      4          6           0       -0.013799   -0.332561   -0.447466
      5          1           0       -0.304848   -1.313080   -0.044737
      6          1           0       -0.143496   -0.381839   -1.534662
      7          6           0       -0.952678    0.730227    0.130121
      8          1           0       -0.823730    0.788839    1.217829
      9          1           0       -0.703994    1.715776   -0.280084
     10          8           0        1.589534    0.110717    1.277301
     11          1           0        2.520669    0.276018    1.470010
     12          8           0       -2.312350    0.496397   -0.226944
     13          1           0       -2.592620   -0.312648    0.220619
 ---------------------------------------------------------------------
                    Distance matrix (angstroms):
                    1          2          3          4          5
     1  C    0.000000
     2  H    1.100980   0.000000
     3  H    1.102982   1.774008   0.000000
     4  C    1.525158   2.160543   2.158283   0.000000
     5  H    2.147267   2.428762   3.055001   1.099235   0.000000
     6  H    2.151264   2.508778   2.436880   1.096013   1.764404
     7  C    2.558689   3.497653   2.879501   1.531215   2.150666
     8  H    2.790296   3.763707   3.246005   2.164887   2.506267
     9  H    2.820106   3.840279   2.705569   2.167965   3.064094
    10  O    1.425433   2.096072   2.086188   2.396246   2.713607
    11  H    1.953682   2.340152   2.323938   3.235832   3.578161
    12  O    3.816338   4.608412   4.157837   2.453393   2.708777
    13  H    4.071220   4.744027   4.628793   2.664029   2.511011
                    6          7          8          9         10
     6  H    0.000000
     7  C    2.159391   0.000000
     8  H    3.067476   1.096892   0.000000
     9  H    2.507611   1.096092   1.765586   0.000000
    10  O    3.339632   2.857036   2.507435   3.203425   0.000000
    11  H    4.069227   3.750433   3.392873   3.941343   0.965129
    12  O    2.680551   1.425089   2.094966   2.019039   4.199548
    13  H    3.013969   1.945556   2.310124   2.816401   4.334308
                   11         12         13
    11  H    0.000000
    12  O    5.127016   0.000000
    13  H    5.296530   0.966135   0.000000
 Stoichiometry    C3H8O2
 Framework group  C1[X(C3H8O2)]
 Deg. of freedom    33
 Full point group                 C1      NOp   1
 Largest Abelian subgroup         C1      NOp   1
 Largest concise Abelian subgroup C1      NOp   1
                         Standard orientation:                         
 ---------------------------------------------------------------------
 Center     Atomic      Atomic             Coordinates (Angstroms)
 Number     Number       Type             X           Y           Z
 ---------------------------------------------------------------------
      1          6           0        1.415902    0.540619    0.191256
      2          1           0        2.033603    1.319692   -0.281657
      3          1           0        1.532069    0.649960    1.282640
      4          6           0       -0.047596    0.747705   -0.184770
      5          1           0       -0.123917    0.820289   -1.278947
      6          1           0       -0.393404    1.703914    0.224284
      7          6           0       -0.970849   -0.375630    0.295171
      8          1           0       -0.626824   -1.336771   -0.106109
      9          1           0       -0.937810   -0.449422    1.388278
     10          8           0        1.811335   -0.763813   -0.225816
     11          1           0        2.734142   -0.891818    0.026206
     12          8           0       -2.335039   -0.126183   -0.032913
     13          1           0       -2.412962   -0.172040   -0.994809
 ---------------------------------------------------------------------
 Rotational constants (GHZ):     12.9152877      2.4585110      2.2306307
 Leave Link  202 at Mon Nov 10 19:57:44 2025, MaxMem=    33554432 cpu:         0.0
 (Enter /opt/programs/gaussian/g09/d_pgi133/l301.exe)
 Standard basis: 6-311++G(d,p) (5D, 7F)
 Ernie: Thresh=  0.10000D-02 Tol=  0.10000D-05 Strict=F.
 There are   171 symmetry adapted cartesian basis functions of A   symmetry.
 There are   166 symmetry adapted basis functions of A   symmetry.
   166 basis functions,   252 primitive gaussians,   171 cartesian basis functions
    21 alpha electrons       21 beta electrons
       nuclear repulsion energy       187.9540575251 Hartrees.
 IExCor= 4336 DFT=T Ex+Corr=M062X ExCW=0 ScaHFX=  0.540000
 ScaDFX=  1.000000  1.000000  1.000000  1.000000 ScalE2=  1.000000  1.000000
 IRadAn=      0 IRanWt=     -1 IRanGd=            0 ICorTp=0 IEmpDi=  4
 NAtoms=   13 NActive=   13 NUniq=   13 SFac= 1.00D+00 NAtFMM=   60 NAOKFM=F Big=F
 Integral buffers will be    131072 words long.
 Raffenetti 2 integral format.
 Two-electron integral symmetry is turned on.
 Leave Link  301 at Mon Nov 10 19:57:44 2025, MaxMem=    33554432 cpu:         0.0
 (Enter /opt/programs/gaussian/g09/d_pgi133/l302.exe)
 NPDir=0 NMtPBC=     1 NCelOv=     1 NCel=       1 NClECP=     1 NCelD=      1
         NCelK=      1 NCelE2=     1 NClLst=     1 CellRange=     0.0.
 One-electron integrals computed using PRISM.
 NBasis=   166 RedAO= T EigKep=  3.64D-05  NBF=   166
 NBsUse=   166 1.00D-06 EigRej= -1.00D+00 NBFU=   166
 Precomputing XC quadrature grid using
 IXCGrd= 4 IRadAn=           0 IRanWt=          -1 IRanGd=           0 AccXCQ= 0.00D+00.
 Generated NRdTot=       0 NPtTot=           0 NUsed=           0 NTot=          32
 NSgBfM=   171   171   171   171   171 MxSgAt=    13 MxSgA2=    13.
 Leave Link  302 at Mon Nov 10 19:57:44 2025, MaxMem=    33554432 cpu:         0.1
 (Enter /opt/programs/gaussian/g09/d_pgi133/l303.exe)
 DipDrv:  MaxL=1.
 Leave Link  303 at Mon Nov 10 19:57:44 2025, MaxMem=    33554432 cpu:         0.0
 (Enter /opt/programs/gaussian/g09/d_pgi133/l401.exe)
 ExpMin= 3.60D-02 ExpMax= 8.59D+03 ExpMxC= 1.30D+03 IAcc=3 IRadAn=         5 AccDes= 0.00D+00
 Harris functional with IExCor= 1009 and IRadAn=       5 diagonalized for initial guess.
 HarFok:  IExCor= 1009 AccDes= 0.00D+00 IRadAn=         5 IDoV= 1 UseB2=F ITyADJ=14
 ICtDFT=  3500011 ScaDFX=  1.000000  1.000000  1.000000  1.000000
 FoFCou: FMM=F IPFlag=           0 FMFlag=      100000 FMFlg1=           0
         NFxFlg=           0 DoJE=T BraDBF=F KetDBF=T FulRan=T
         wScrn=  0.000000 ICntrl=     500 IOpCl=  0 I1Cent=   200000004 NGrid=           0
         NMat0=    1 NMatS0=      1 NMatT0=    0 NMatD0=    1 NMtDS0=    0 NMtDT0=    0
 Petite list used in FoFCou.
 Harris En= -269.443588195427    
 JPrj=0 DoOrth=F DoCkMO=F.
 Leave Link  401 at Mon Nov 10 19:57:45 2025, MaxMem=    33554432 cpu:         1.5
 (Enter /opt/programs/gaussian/g09/d_pgi133/l502.exe)
 Closed shell SCF:
 Using DIIS extrapolation, IDIIS=  1040.
 Integral symmetry usage will be decided dynamically.
 IVT=      108587 IEndB=      108587 NGot=    33554432 MDV=    33491898
 LenX=    33491898 LenY=    33462216
 Requested convergence on RMS density matrix=1.00D-08 within 128 cycles.
 Requested convergence on MAX density matrix=1.00D-06.
 Requested convergence on             energy=1.00D-06.
 No special actions if energy rises.
 Fock matrices will be formed incrementally for  20 cycles.

 Cycle   1  Pass 1  IDiag  1:
 FoFJK:  IHMeth= 1 ICntrl=       0 DoSepK=F KAlg= 0 I1Cent=   0 FoldK=F
 IRaf= 980000000 NMat=   1 IRICut=       1 DoRegI=T DoRafI=F ISym2E= 0.
 FoFCou: FMM=F IPFlag=           0 FMFlag=      100000 FMFlg1=           0
         NFxFlg=           0 DoJE=F BraDBF=F KetDBF=F FulRan=T
         wScrn=  0.000000 ICntrl=       0 IOpCl=  0 I1Cent=           0 NGrid=           0
         NMat0=    1 NMatS0=      1 NMatT0=    0 NMatD0=    1 NMtDS0=    0 NMtDT0=    0
 Symmetry not used in FoFCou.
 E= -269.362365854665    
 DIIS: error= 2.86D-02 at cycle   1 NSaved=   1.
 NSaved= 1 IEnMin= 1 EnMin= -269.362365854665     IErMin= 1 ErrMin= 2.86D-02
 ErrMax= 2.86D-02  0.00D+00 EMaxC= 1.00D-01 BMatC= 2.34D-01 BMatP= 2.34D-01
 IDIUse=3 WtCom= 7.14D-01 WtEn= 2.86D-01
 Coeff-Com:  0.100D+01
 Coeff-En:   0.100D+01
 Coeff:      0.100D+01
 Gap=     0.286 Goal=   None    Shift=    0.000
 GapD=    0.286 DampG=1.000 DampE=0.500 DampFc=0.5000 IDamp=-1.
 Damping current iteration by 5.00D-01
 RMSDP=5.88D-03 MaxDP=1.41D-01              OVMax= 1.38D-01

 Cycle   2  Pass 1  IDiag  1:
 RMSU=  2.90D-03    CP:  9.67D-01
 E= -269.443500727831     Delta-E=       -0.081134873166 Rises=F Damp=T
 DIIS: error= 7.10D-03 at cycle   2 NSaved=   2.
 NSaved= 2 IEnMin= 2 EnMin= -269.443500727831     IErMin= 2 ErrMin= 7.10D-03
 ErrMax= 7.10D-03  0.00D+00 EMaxC= 1.00D-01 BMatC= 1.52D-02 BMatP= 2.34D-01
 IDIUse=3 WtCom= 9.29D-01 WtEn= 7.10D-02
 Coeff-Com: -0.379D-01 0.104D+01
 Coeff-En:   0.000D+00 0.100D+01
 Coeff:     -0.352D-01 0.104D+01
 Gap=     0.341 Goal=   None    Shift=    0.000
 RMSDP=1.82D-03 MaxDP=5.81D-02 DE=-8.11D-02 OVMax= 7.21D-02

 Cycle   3  Pass 1  IDiag  1:
 RMSU=  1.79D-03    CP:  9.44D-01  1.03D+00
 E= -269.528141284004     Delta-E=       -0.084640556173 Rises=F Damp=F
 DIIS: error= 4.04D-03 at cycle   3 NSaved=   3.
 NSaved= 3 IEnMin= 3 EnMin= -269.528141284004     IErMin= 3 ErrMin= 4.04D-03
 ErrMax= 4.04D-03  0.00D+00 EMaxC= 1.00D-01 BMatC= 3.94D-03 BMatP= 1.52D-02
 IDIUse=3 WtCom= 9.60D-01 WtEn= 4.04D-02
 Coeff-Com: -0.770D-01 0.314D+00 0.763D+00
 Coeff-En:   0.000D+00 0.000D+00 0.100D+01
 Coeff:     -0.739D-01 0.301D+00 0.773D+00
 Gap=     0.335 Goal=   None    Shift=    0.000
 RMSDP=3.46D-04 MaxDP=8.69D-03 DE=-8.46D-02 OVMax= 1.12D-02

 Cycle   4  Pass 1  IDiag  1:
 RMSU=  3.20D-04    CP:  9.44D-01  1.07D+00  9.92D-01
 E= -269.530229281457     Delta-E=       -0.002087997453 Rises=F Damp=F
 DIIS: error= 1.42D-03 at cycle   4 NSaved=   4.
 NSaved= 4 IEnMin= 4 EnMin= -269.530229281457     IErMin= 4 ErrMin= 1.42D-03
 ErrMax= 1.42D-03  0.00D+00 EMaxC= 1.00D-01 BMatC= 7.36D-04 BMatP= 3.94D-03
 IDIUse=3 WtCom= 9.86D-01 WtEn= 1.42D-02
 Coeff-Com: -0.318D-01 0.850D-01 0.373D+00 0.574D+00
 Coeff-En:   0.000D+00 0.000D+00 0.106D+00 0.894D+00
 Coeff:     -0.314D-01 0.838D-01 0.369D+00 0.578D+00
 Gap=     0.332 Goal=   None    Shift=    0.000
 RMSDP=1.45D-04 MaxDP=3.50D-03 DE=-2.09D-03 OVMax= 4.52D-03

 Cycle   5  Pass 1  IDiag  1:
 RMSU=  9.79D-05    CP:  9.42D-01  1.07D+00  9.97D-01  6.83D-01
 E= -269.530823661412     Delta-E=       -0.000594379954 Rises=F Damp=F
 DIIS: error= 2.02D-04 at cycle   5 NSaved=   5.
 NSaved= 5 IEnMin= 5 EnMin= -269.530823661412     IErMin= 5 ErrMin= 2.02D-04
 ErrMax= 2.02D-04  0.00D+00 EMaxC= 1.00D-01 BMatC= 9.57D-06 BMatP= 7.36D-04
 IDIUse=3 WtCom= 9.98D-01 WtEn= 2.02D-03
 Coeff-Com: -0.393D-02 0.567D-02 0.534D-01 0.149D+00 0.795D+00
 Coeff-En:   0.000D+00 0.000D+00 0.000D+00 0.000D+00 0.100D+01
 Coeff:     -0.392D-02 0.566D-02 0.533D-01 0.149D+00 0.796D+00
 Gap=     0.332 Goal=   None    Shift=    0.000
 RMSDP=3.55D-05 MaxDP=1.74D-03 DE=-5.94D-04 OVMax= 6.04D-04

 Cycle   6  Pass 1  IDiag  1:
 RMSU=  2.75D-05    CP:  9.43D-01  1.06D+00  1.00D+00  7.32D-01  9.29D-01
 E= -269.530831566681     Delta-E=       -0.000007905270 Rises=F Damp=F
 DIIS: error= 2.39D-05 at cycle   6 NSaved=   6.
 NSaved= 6 IEnMin= 6 EnMin= -269.530831566681     IErMin= 6 ErrMin= 2.39D-05
 ErrMax= 2.39D-05  0.00D+00 EMaxC= 1.00D-01 BMatC= 1.37D-07 BMatP= 9.57D-06
 IDIUse=1 WtCom= 1.00D+00 WtEn= 0.00D+00
 Coeff-Com:  0.824D-03-0.220D-02-0.781D-02-0.695D-02 0.392D-01 0.977D+00
 Coeff:      0.824D-03-0.220D-02-0.781D-02-0.695D-02 0.392D-01 0.977D+00
 Gap=     0.332 Goal=   None    Shift=    0.000
 RMSDP=9.34D-06 MaxDP=2.77D-04 DE=-7.91D-06 OVMax= 1.27D-04

 Cycle   7  Pass 1  IDiag  1:
 RMSU=  5.10D-06    CP:  9.43D-01  1.06D+00  1.00D+00  7.39D-01  9.62D-01
                    CP:  1.08D+00
 E= -269.530831739923     Delta-E=       -0.000000173242 Rises=F Damp=F
 DIIS: error= 8.54D-06 at cycle   7 NSaved=   7.
 NSaved= 7 IEnMin= 7 EnMin= -269.530831739923     IErMin= 7 ErrMin= 8.54D-06
 ErrMax= 8.54D-06  0.00D+00 EMaxC= 1.00D-01 BMatC= 2.28D-08 BMatP= 1.37D-07
 IDIUse=1 WtCom= 1.00D+00 WtEn= 0.00D+00
 Coeff-Com:  0.492D-03-0.103D-02-0.556D-02-0.106D-01-0.338D-01 0.293D+00
 Coeff-Com:  0.758D+00
 Coeff:      0.492D-03-0.103D-02-0.556D-02-0.106D-01-0.338D-01 0.293D+00
 Coeff:      0.758D+00
 Gap=     0.332 Goal=   None    Shift=    0.000
 RMSDP=1.63D-06 MaxDP=6.06D-05 DE=-1.73D-07 OVMax= 3.53D-05

 Cycle   8  Pass 1  IDiag  1:
 RMSU=  8.21D-07    CP:  9.43D-01  1.06D+00  1.00D+00  7.40D-01  9.66D-01
                    CP:  1.11D+00  9.19D-01
 E= -269.530831761632     Delta-E=       -0.000000021709 Rises=F Damp=F
 DIIS: error= 2.63D-06 at cycle   8 NSaved=   8.
 NSaved= 8 IEnMin= 8 EnMin= -269.530831761632     IErMin= 8 ErrMin= 2.63D-06
 ErrMax= 2.63D-06  0.00D+00 EMaxC= 1.00D-01 BMatC= 2.17D-09 BMatP= 2.28D-08
 IDIUse=1 WtCom= 1.00D+00 WtEn= 0.00D+00
 Coeff-Com:  0.111D-03-0.213D-03-0.142D-02-0.314D-02-0.141D-01 0.435D-01
 Coeff-Com:  0.272D+00 0.703D+00
 Coeff:      0.111D-03-0.213D-03-0.142D-02-0.314D-02-0.141D-01 0.435D-01
 Coeff:      0.272D+00 0.703D+00
 Gap=     0.332 Goal=   None    Shift=    0.000
 RMSDP=4.60D-07 MaxDP=1.76D-05 DE=-2.17D-08 OVMax= 1.33D-05

 Cycle   9  Pass 1  IDiag  1:
 RMSU=  2.91D-07    CP:  9.43D-01  1.06D+00  1.00D+00  7.40D-01  9.66D-01
                    CP:  1.12D+00  9.71D-01  9.86D-01
 E= -269.530831763618     Delta-E=       -0.000000001987 Rises=F Damp=F
 DIIS: error= 7.61D-07 at cycle   9 NSaved=   9.
 NSaved= 9 IEnMin= 9 EnMin= -269.530831763618     IErMin= 9 ErrMin= 7.61D-07
 ErrMax= 7.61D-07  0.00D+00 EMaxC= 1.00D-01 BMatC= 1.20D-10 BMatP= 2.17D-09
 IDIUse=1 WtCom= 1.00D+00 WtEn= 0.00D+00
 Coeff-Com: -0.115D-04 0.263D-04 0.493D-04 0.796D-05-0.109D-02-0.113D-01
 Coeff-Com:  0.114D-01 0.185D+00 0.816D+00
 Coeff:     -0.115D-04 0.263D-04 0.493D-04 0.796D-05-0.109D-02-0.113D-01
 Coeff:      0.114D-01 0.185D+00 0.816D+00
 Gap=     0.332 Goal=   None    Shift=    0.000
 RMSDP=1.04D-07 MaxDP=2.57D-06 DE=-1.99D-09 OVMax= 3.53D-06

 Cycle  10  Pass 1  IDiag  1:
 RMSU=  6.92D-08    CP:  9.43D-01  1.06D+00  1.00D+00  7.40D-01  9.66D-01
                    CP:  1.12D+00  9.81D-01  1.04D+00  1.04D+00
 E= -269.530831763717     Delta-E=       -0.000000000099 Rises=F Damp=F
 DIIS: error= 3.50D-07 at cycle  10 NSaved=  10.
 NSaved=10 IEnMin=10 EnMin= -269.530831763717     IErMin=10 ErrMin= 3.50D-07
 ErrMax= 3.50D-07  0.00D+00 EMaxC= 1.00D-01 BMatC= 2.94D-11 BMatP= 1.20D-10
 IDIUse=1 WtCom= 1.00D+00 WtEn= 0.00D+00
 Coeff-Com: -0.134D-04 0.278D-04 0.128D-03 0.236D-03 0.541D-03-0.835D-02
 Coeff-Com: -0.180D-01 0.262D-01 0.390D+00 0.609D+00
 Coeff:     -0.134D-04 0.278D-04 0.128D-03 0.236D-03 0.541D-03-0.835D-02
 Coeff:     -0.180D-01 0.262D-01 0.390D+00 0.609D+00
 Gap=     0.332 Goal=   None    Shift=    0.000
 RMSDP=4.78D-08 MaxDP=1.80D-06 DE=-9.89D-11 OVMax= 1.37D-06

 Cycle  11  Pass 1  IDiag  1:
 RMSU=  2.36D-08    CP:  9.43D-01  1.06D+00  1.00D+00  7.40D-01  9.66D-01
                    CP:  1.11D+00  9.87D-01  1.05D+00  1.09D+00  8.56D-01
 E= -269.530831763742     Delta-E=       -0.000000000025 Rises=F Damp=F
 DIIS: error= 6.55D-08 at cycle  11 NSaved=  11.
 NSaved=11 IEnMin=11 EnMin= -269.530831763742     IErMin=11 ErrMin= 6.55D-08
 ErrMax= 6.55D-08  0.00D+00 EMaxC= 1.00D-01 BMatC= 1.03D-12 BMatP= 2.94D-11
 IDIUse=1 WtCom= 1.00D+00 WtEn= 0.00D+00
 Coeff-Com: -0.147D-05 0.325D-05 0.225D-04 0.411D-04 0.169D-03-0.680D-03
 Coeff-Com: -0.467D-02-0.111D-01 0.437D-02 0.147D+00 0.865D+00
 Coeff:     -0.147D-05 0.325D-05 0.225D-04 0.411D-04 0.169D-03-0.680D-03
 Coeff:     -0.467D-02-0.111D-01 0.437D-02 0.147D+00 0.865D+00
 Gap=     0.332 Goal=   None    Shift=    0.000
 RMSDP=1.27D-08 MaxDP=3.29D-07 DE=-2.47D-11 OVMax= 5.16D-07

 Cycle  12  Pass 1  IDiag  1:
 RMSU=  8.80D-09    CP:  9.43D-01  1.06D+00  1.00D+00  7.40D-01  9.66D-01
                    CP:  1.11D+00  9.87D-01  1.06D+00  1.11D+00  9.13D-01
                    CP:  1.01D+00
 E= -269.530831763739     Delta-E=        0.000000000003 Rises=F Damp=F
 DIIS: error= 1.35D-08 at cycle  12 NSaved=  12.
 NSaved=12 IEnMin=11 EnMin= -269.530831763742     IErMin=12 ErrMin= 1.35D-08
 ErrMax= 1.35D-08  0.00D+00 EMaxC= 1.00D-01 BMatC= 5.17D-14 BMatP= 1.03D-12
 IDIUse=1 WtCom= 1.00D+00 WtEn= 0.00D+00
 Coeff-Com:  0.862D-06-0.166D-05-0.589D-05-0.123D-04-0.211D-04 0.533D-03
 Coeff-Com:  0.687D-03-0.384D-02-0.289D-01-0.256D-01 0.124D+00 0.934D+00
 Coeff:      0.862D-06-0.166D-05-0.589D-05-0.123D-04-0.211D-04 0.533D-03
 Coeff:      0.687D-03-0.384D-02-0.289D-01-0.256D-01 0.124D+00 0.934D+00
 Gap=     0.332 Goal=   None    Shift=    0.000
 RMSDP=4.64D-09 MaxDP=1.68D-07 DE= 2.90D-12 OVMax= 1.83D-07

 SCF Done:  E(RM062X) =  -269.530831764     A.U. after   12 cycles
            NFock= 12  Conv=0.46D-08     -V/T= 2.0039
 KE= 2.684928240805D+02 PE=-1.007596746679D+03 EE= 2.816190333097D+02
 Leave Link  502 at Mon Nov 10 19:58:10 2025, MaxMem=    33554432 cpu:        25.0
 (Enter /opt/programs/gaussian/g09/d_pgi133/l601.exe)
 Copying SCF densities to generalized density rwf, IOpCl= 0 IROHF=0.

 **********************************************************************

            Population analysis using the SCF density.

 **********************************************************************

 Orbital symmetries:
       Occupied  (A) (A) (A) (A) (A) (A) (A) (A) (A) (A) (A) (A)
                 (A) (A) (A) (A) (A) (A) (A) (A) (A)
       Virtual   (A) (A) (A) (A) (A) (A) (A) (A) (A) (A) (A) (A)
                 (A) (A) (A) (A) (A) (A) (A) (A) (A) (A) (A) (A)
                 (A) (A) (A) (A) (A) (A) (A) (A) (A) (A) (A) (A)
                 (A) (A) (A) (A) (A) (A) (A) (A) (A) (A) (A) (A)
                 (A) (A) (A) (A) (A) (A) (A) (A) (A) (A) (A) (A)
                 (A) (A) (A) (A) (A) (A) (A) (A) (A) (A) (A) (A)
                 (A) (A) (A) (A) (A) (A) (A) (A) (A) (A) (A) (A)
                 (A) (A) (A) (A) (A) (A) (A) (A) (A) (A) (A) (A)
                 (A) (A) (A) (A) (A) (A) (A) (A) (A) (A) (A) (A)
                 (A) (A) (A) (A) (A) (A) (A) (A) (A) (A) (A) (A)
                 (A) (A) (A) (A) (A) (A) (A) (A) (A) (A) (A) (A)
                 (A) (A) (A) (A) (A) (A) (A) (A) (A) (A) (A) (A)
                 (A)
 The electronic state is 1-A.
 Alpha  occ. eigenvalues --  -19.63066 -19.61794 -10.59392 -10.57810 -10.53741
 Alpha  occ. eigenvalues --   -1.15225  -1.13855  -0.87520  -0.76322  -0.68101
 Alpha  occ. eigenvalues --   -0.61224  -0.57012  -0.55088  -0.51261  -0.48620
 Alpha  occ. eigenvalues --   -0.45558  -0.44527  -0.41156  -0.38950  -0.36274
 Alpha  occ. eigenvalues --   -0.33964
 Alpha virt. eigenvalues --   -0.00728   0.00590   0.01500   0.01863   0.04082
 Alpha virt. eigenvalues --    0.04446   0.04887   0.05716   0.08133   0.09441
 Alpha virt. eigenvalues --    0.10030   0.11458   0.11805   0.12281   0.13157
 Alpha virt. eigenvalues --    0.13452   0.14499   0.15089   0.16747   0.16995
 Alpha virt. eigenvalues --    0.20003   0.21151   0.22042   0.22459   0.22939
 Alpha virt. eigenvalues --    0.24641   0.25289   0.26580   0.27836   0.28530
 Alpha virt. eigenvalues --    0.29699   0.31042   0.31479   0.32567   0.33684
 Alpha virt. eigenvalues --    0.34642   0.35795   0.39067   0.40637   0.41357
 Alpha virt. eigenvalues --    0.47431   0.49075   0.51365   0.52303   0.58007
 Alpha virt. eigenvalues --    0.59576   0.61250   0.62709   0.66047   0.67959
 Alpha virt. eigenvalues --    0.69322   0.71677   0.72266   0.74962   0.75715
 Alpha virt. eigenvalues --    0.77176   0.78588   0.93018   0.95651   1.01307
 Alpha virt. eigenvalues --    1.04216   1.05005   1.13129   1.14364   1.17880
 Alpha virt. eigenvalues --    1.21602   1.24498   1.26771   1.30050   1.33564
 Alpha virt. eigenvalues --    1.40170   1.43880   1.44885   1.48946   1.53370
 Alpha virt. eigenvalues --    1.55351   1.59672   1.60154   1.61681   1.63373
 Alpha virt. eigenvalues --    1.64651   1.66593   1.69151   1.70386   1.75504
 Alpha virt. eigenvalues --    1.77229   1.80698   1.82935   1.85051   1.86140
 Alpha virt. eigenvalues --    1.97227   2.01780   2.05379   2.08832   2.11270
 Alpha virt. eigenvalues --    2.13876   2.18321   2.25238   2.28582   2.32957
 Alpha virt. eigenvalues --    2.36466   2.46673   2.51571   2.53356   2.54709
 Alpha virt. eigenvalues --    2.57104   2.58708   2.64170   2.66506   2.68498
 Alpha virt. eigenvalues --    2.72958   2.77859   2.80982   2.89198   2.90983
 Alpha virt. eigenvalues --    2.99335   3.01923   3.11307   3.17953   3.20245
 Alpha virt. eigenvalues --    3.25665   3.27176   3.33727   3.37902   3.43455
 Alpha virt. eigenvalues --    3.79985   3.81929   3.87194   3.92193   3.95215
 Alpha virt. eigenvalues --    4.03958   4.05804   4.17428   4.34155   5.16607
 Alpha virt. eigenvalues --    5.20212   5.49507   5.50687   5.73406   5.74341
 Alpha virt. eigenvalues --   23.89819  23.93191  23.98063  50.01740  50.03515
          Condensed to atoms (all electrons):
               1          2          3          4          5          6
     1  C    5.415045   0.372782   0.403851   0.156608  -0.084593  -0.025217
     2  H    0.372782   0.642326  -0.082676  -0.024135  -0.022553   0.011300
     3  H    0.403851  -0.082676   0.649123  -0.037875   0.015033  -0.018557
     4  C    0.156608  -0.024135  -0.037875   5.557350   0.470907   0.375392
     5  H   -0.084593  -0.022553   0.015033   0.470907   0.575358  -0.058041
     6  H   -0.025217   0.011300  -0.018557   0.375392  -0.058041   0.544457
     7  C   -0.043817   0.008345  -0.014953  -0.037225  -0.024094  -0.038400
     8  H   -0.014048   0.003402  -0.001304  -0.003607  -0.031589   0.019030
     9  H   -0.011033  -0.002610   0.000416   0.009648   0.013288  -0.018401
    10  O    0.127877  -0.053430  -0.066888  -0.046583  -0.022427   0.024775
    11  H    0.026406  -0.007720  -0.008061  -0.014356   0.003437  -0.002628
    12  O    0.033715  -0.000015  -0.000153  -0.109619  -0.028047   0.014756
    13  H    0.002962  -0.000261   0.000126   0.037359   0.006660  -0.006573
               7          8          9         10         11         12
     1  C   -0.043817  -0.014048  -0.011033   0.127877   0.026406   0.033715
     2  H    0.008345   0.003402  -0.002610  -0.053430  -0.007720  -0.000015
     3  H   -0.014953  -0.001304   0.000416  -0.066888  -0.008061  -0.000153
     4  C   -0.037225  -0.003607   0.009648  -0.046583  -0.014356  -0.109619
     5  H   -0.024094  -0.031589   0.013288  -0.022427   0.003437  -0.028047
     6  H   -0.038400   0.019030  -0.018401   0.024775  -0.002628   0.014756
     7  C    5.603721   0.322055   0.396335  -0.040690   0.001904   0.242736
     8  H    0.322055   0.620167  -0.073780   0.029679  -0.001122  -0.019488
     9  H    0.396335  -0.073780   0.587531  -0.017406   0.000582  -0.090739
    10  O   -0.040690   0.029679  -0.017406   8.131356   0.217647   0.000095
    11  H    0.001904  -0.001122   0.000582   0.217647   0.515785   0.000067
    12  O    0.242736  -0.019488  -0.090739   0.000095   0.000067   7.974132
    13  H   -0.066020  -0.024036   0.021596  -0.000396  -0.000232   0.251760
              13
     1  C    0.002962
     2  H   -0.000261
     3  H    0.000126
     4  C    0.037359
     5  H    0.006660
     6  H   -0.006573
     7  C   -0.066020
     8  H   -0.024036
     9  H    0.021596
    10  O   -0.000396
    11  H   -0.000232
    12  O    0.251760
    13  H    0.529376
 Mulliken charges:
               1
     1  C   -0.360539
     2  H    0.155244
     3  H    0.161917
     4  C   -0.333865
     5  H    0.186662
     6  H    0.178106
     7  C   -0.309896
     8  H    0.174641
     9  H    0.184572
    10  O   -0.283609
    11  H    0.268290
    12  O   -0.269199
    13  H    0.247677
 Sum of Mulliken charges =   0.00000
 Mulliken charges with hydrogens summed into heavy atoms:
               1
     1  C   -0.043378
     4  C    0.030903
     7  C    0.049316
    10  O   -0.015319
    12  O   -0.021522
 Electronic spatial extent (au):  <R**2>=            555.2499
 Charge=              0.0000 electrons
 Dipole moment (field-independent basis, Debye):
    X=              2.5643    Y=              0.8398    Z=             -0.3505  Tot=              2.7209
 Quadrupole moment (field-independent basis, Debye-Ang):
   XX=            -31.6723   YY=            -32.7430   ZZ=            -30.1688
   XY=              0.8019   XZ=              5.3019   YZ=             -0.3223
 Traceless Quadrupole moment (field-independent basis, Debye-Ang):
   XX=             -0.1443   YY=             -1.2150   ZZ=              1.3592
   XY=              0.8019   XZ=              5.3019   YZ=             -0.3223
 Octapole moment (field-independent basis, Debye-Ang**2):
  XXX=             39.0313  YYY=             -2.5195  ZZZ=             -1.8354  XYY=              1.2022
  XXY=             -5.0468  XXZ=             -7.2312  XZZ=             -6.4104  YZZ=             -0.9068
  YYZ=             -0.0664  XYZ=             -2.2737
 Hexadecapole moment (field-independent basis, Debye-Ang**3):
 XXXX=           -464.1738 YYYY=           -121.2014 ZZZZ=            -61.5835 XXXY=            -25.0710
 XXXZ=             34.3785 YYYX=             -5.1868 YYYZ=              1.9275 ZZZX=              7.2376
 ZZZY=             -0.0272 XXYY=           -101.1243 XXZZ=            -84.3688 YYZZ=            -32.3497
 XXYZ=             -1.3412 YYXZ=              0.5124 ZZXY=              0.9254
 N-N= 1.879540575251D+02 E-N=-1.007596747033D+03  KE= 2.684928240805D+02
 No NMR shielding tensors so no spin-rotation constants.
 Leave Link  601 at Mon Nov 10 19:58:10 2025, MaxMem=    33554432 cpu:         0.0
 (Enter /opt/programs/gaussian/g09/d_pgi133/l9999.exe)
 1\1\GINC-EXADE5\SP\RM062X\6-311++G(d,p)\C3H8O2\APINTO\10-Nov-2025\0\\#
 p M062X/6-311++G(d,p)\\SP\\0,1\C,0,1.457497,-0.089157,-0.127859\H,0,2.
 057755,-0.945777,-0.471443\H,0,1.809688,0.798382,-0.67995\C,0,-0.01379
 9,-0.332561,-0.447466\H,0,-0.304848,-1.31308,-0.044737\H,0,-0.143496,-
 0.381839,-1.534662\C,0,-0.952678,0.730227,0.130121\H,0,-0.82373,0.7888
 39,1.217829\H,0,-0.703994,1.715776,-0.280084\O,0,1.589534,0.110717,1.2
 77301\H,0,2.520669,0.276018,1.47001\O,0,-2.31235,0.496397,-0.226944\H,
 0,-2.59262,-0.312648,0.220619\\Version=ES64L-G09RevD.01\State=1-A\HF=-
 269.5308318\RMSD=4.643e-09\Dipole=0.9921189,-0.4016803,-0.017963\Quadr
 upole=1.6430282,-0.0222585,-1.6207697,3.2039107,-1.9615039,0.315406\PG
 =C01 [X(C3H8O2)]\\@


 Just remember, when you're over the hill, you begin to pick up speed.
 -- Charles Schulz
 Job cpu time:       0 days  0 hours  0 minutes 26.6 seconds.
 File lengths (MBytes):  RWF=     16 Int=      0 D2E=      0 Chk=      2 Scr=      1
 Normal termination of Gaussian 09 at Mon Nov 10 19:58:10 2025.
